# vtk DataFile Version 2.0
bar, Created by Gmsh 4.13.0 
ASCII
DATASET UNSTRUCTURED_GRID
POINTS 44 double
0 0 0
0 1 0
0 1 1
0 0 1
5 0 0
5 1 0
5 1 1
5 0 1
10 0 0
10 1 0
10 1 1
10 0 1
0.999999999998412 0 0
1.999999999995508 0 0
2.99999999999696 0 0
3.99999999999848 0 0
0.999999999998412 1 0
1.999999999995508 1 0
2.99999999999696 1 0
3.99999999999848 1 0
0.999999999998412 1 1
1.999999999995508 1 1
2.99999999999696 1 1
3.99999999999848 1 1
0.999999999998412 0 1
1.999999999995508 0 1
2.99999999999696 0 1
3.99999999999848 0 1
6.000000000000002 0 0
7.000000000000002 0 0
8.000000000000002 0 0
9 0 0
6.000000000000002 1 0
7.000000000000002 1 0
8.000000000000002 1 0
9 1 0
6.000000000000002 1 1
7.000000000000002 1 1
8.000000000000002 1 1
9 1 1
6.000000000000002 0 1
7.000000000000002 0 1
8.000000000000002 0 1
9 0 1

CELLS 44 220
4 3 2 1 0
4 4 5 6 7
4 0 1 16 12
4 12 16 17 13
4 13 17 18 14
4 14 18 19 15
4 15 19 5 4
4 1 2 20 16
4 16 20 21 17
4 17 21 22 18
4 18 22 23 19
4 19 23 6 5
4 2 3 24 20
4 20 24 25 21
4 21 25 26 22
4 22 26 27 23
4 23 27 7 6
4 3 0 12 24
4 24 12 13 25
4 25 13 14 26
4 26 14 15 27
4 27 15 4 7
4 7 6 5 4
4 8 9 10 11
4 4 5 32 28
4 28 32 33 29
4 29 33 34 30
4 30 34 35 31
4 31 35 9 8
4 5 6 36 32
4 32 36 37 33
4 33 37 38 34
4 34 38 39 35
4 35 39 10 9
4 6 7 40 36
4 36 40 41 37
4 37 41 42 38
4 38 42 43 39
4 39 43 11 10
4 7 4 28 40
4 40 28 29 41
4 41 29 30 42
4 42 30 31 43
4 43 31 8 11

CELL_TYPES 44
9
9
9
9
9
9
9
9
9
9
9
9
9
9
9
9
9
9
9
9
9
9
9
9
9
9
9
9
9
9
9
9
9
9
9
9
9
9
9
9
9
9
9
9

CELL_DATA 44
SCALARS CellEntityIds int 1
LOOKUP_TABLE default
1
5
2
2
2
2
2
2
2
2
2
2
2
2
2
2
2
2
2
2
2
2
6
4
3
3
3
3
3
3
3
3
3
3
3
3
3
3
3
3
3
3
3
3
