# vtk DataFile Version 2.0
barra, Created by Gmsh 4.9.5 
ASCII
DATASET UNSTRUCTURED_GRID
POINTS 130 double
0 0 0
0 1 0
0 1 1
0 0 1
10 0 0
10 1 0
10 1 1
10 0 1
0 0.2499999999994109 0
0 0.4999999999986921 0
0 0.7499999999993406 0
0 1 0.2499999999994109
0 1 0.4999999999986921
0 1 0.7499999999993406
0 0.7500000000003471 1
0 0.5000000000020595 1
0 0.2500000000010405 1
0 0 0.7500000000003471
0 0 0.5000000000020595
0 0 0.2500000000010405
1.666666666664465 0 0
3.333333333326263 0 0
4.999999999992399 0 0
6.6666666666616 0 0
8.333333333330801 0 0
1.666666666664465 1 0
3.333333333326263 1 0
4.999999999992399 1 0
6.6666666666616 1 0
8.333333333330801 1 0
1.666666666664465 1 1
3.333333333326263 1 1
4.999999999992399 1 1
6.6666666666616 1 1
8.333333333330801 1 1
1.666666666664465 0 1
3.333333333326263 0 1
4.999999999992399 0 1
6.6666666666616 0 1
8.333333333330801 0 1
10 0.2499999999994109 0
10 0.4999999999986921 0
10 0.7499999999993406 0
10 1 0.2499999999994109
10 1 0.4999999999986921
10 1 0.7499999999993406
10 0.7500000000003471 1
10 0.5000000000020595 1
10 0.2500000000010405 1
10 0 0.7500000000003471
10 0 0.5000000000020595
10 0 0.2500000000010405
0 0.2500000000006332 0.7500000000000954
0 0.5000000000012177 0.7499999999998438
0 0.7500000000000953 0.7499999999995921
0 0.2500000000002257 0.5000000000012177
0 0.5000000000003757 0.5000000000003757
0 0.7499999999998439 0.4999999999995339
0 0.2499999999998184 0.2500000000006332
0 0.4999999999995339 0.2500000000002257
0 0.7499999999995922 0.2499999999998184
10 0.2499999999998184 0.2500000000006332
10 0.2500000000002257 0.5000000000012177
10 0.2500000000006332 0.7500000000000954
10 0.4999999999995339 0.2500000000002257
10 0.5000000000003757 0.5000000000003757
10 0.5000000000012177 0.749999999999844
10 0.7499999999995922 0.2499999999998184
10 0.749999999999844 0.4999999999995339
10 0.7500000000000953 0.7499999999995921
1.666666666664465 0.2499999999994109 0
3.333333333326263 0.2499999999994109 0
4.999999999992399 0.249999999999411 0
6.666666666661599 0.2499999999994109 0
8.333333333330799 0.2499999999994109 0
1.666666666664464 0.4999999999986922 0
3.333333333326263 0.4999999999986922 0
4.9999999999924 0.499999999998692 0
6.6666666666616 0.4999999999986922 0
8.333333333330801 0.4999999999986921 0
1.666666666664465 0.7499999999993407 0
3.333333333326263 0.7499999999993406 0
4.999999999992399 0.7499999999993407 0
6.6666666666616 0.7499999999993406 0
8.333333333330801 0.7499999999993406 0
1.666666666664465 1 0.2499999999994109
3.333333333326263 1 0.2499999999994109
4.999999999992399 1 0.249999999999411
6.666666666661599 1 0.2499999999994109
8.333333333330799 1 0.2499999999994109
1.666666666664464 1 0.4999999999986922
3.333333333326263 1 0.4999999999986922
4.9999999999924 1 0.499999999998692
6.6666666666616 1 0.4999999999986922
8.333333333330801 1 0.4999999999986921
1.666666666664465 1 0.7499999999993407
3.333333333326263 1 0.7499999999993406
4.999999999992399 1 0.7499999999993407
6.6666666666616 1 0.7499999999993406
8.333333333330801 1 0.7499999999993406
1.666666666664465 0.7500000000003473 1
3.333333333326263 0.7500000000003472 1
4.999999999992399 0.7500000000003471 1
6.6666666666616 0.7500000000003471 1
8.333333333330801 0.7500000000003471 1
1.666666666664465 0.5000000000020595 1
3.333333333326263 0.5000000000020595 1
4.999999999992399 0.5000000000020595 1
6.6666666666616 0.5000000000020595 1
8.333333333330801 0.5000000000020595 1
1.666666666664465 0.2500000000010405 1
3.333333333326263 0.2500000000010405 1
4.999999999992399 0.2500000000010405 1
6.6666666666616 0.2500000000010405 1
8.333333333330799 0.2500000000010405 1
1.666666666664465 0 0.7500000000003473
3.333333333326263 0 0.7500000000003472
4.999999999992399 0 0.7500000000003471
6.6666666666616 0 0.7500000000003471
8.333333333330801 0 0.7500000000003471
1.666666666664465 0 0.5000000000020595
3.333333333326263 0 0.5000000000020595
4.999999999992399 0 0.5000000000020595
6.6666666666616 0 0.5000000000020595
8.333333333330801 0 0.5000000000020595
1.666666666664465 0 0.2500000000010405
3.333333333326263 0 0.2500000000010405
4.999999999992399 0 0.2500000000010405
6.6666666666616 0 0.2500000000010405
8.333333333330799 0 0.2500000000010405

CELLS 128 640
4 3 16 52 17
4 16 15 53 52
4 15 14 54 53
4 14 2 13 54
4 17 52 55 18
4 52 53 56 55
4 53 54 57 56
4 54 13 12 57
4 18 55 58 19
4 55 56 59 58
4 56 57 60 59
4 57 12 11 60
4 19 58 8 0
4 58 59 9 8
4 59 60 10 9
4 60 11 1 10
4 4 40 61 51
4 51 61 62 50
4 50 62 63 49
4 49 63 48 7
4 40 41 64 61
4 61 64 65 62
4 62 65 66 63
4 63 66 47 48
4 41 42 67 64
4 64 67 68 65
4 65 68 69 66
4 66 69 46 47
4 42 5 43 67
4 67 43 44 68
4 68 44 45 69
4 69 45 6 46
4 0 8 70 20
4 20 70 71 21
4 21 71 72 22
4 22 72 73 23
4 23 73 74 24
4 24 74 40 4
4 8 9 75 70
4 70 75 76 71
4 71 76 77 72
4 72 77 78 73
4 73 78 79 74
4 74 79 41 40
4 9 10 80 75
4 75 80 81 76
4 76 81 82 77
4 77 82 83 78
4 78 83 84 79
4 79 84 42 41
4 10 1 25 80
4 80 25 26 81
4 81 26 27 82
4 82 27 28 83
4 83 28 29 84
4 84 29 5 42
4 1 11 85 25
4 25 85 86 26
4 26 86 87 27
4 27 87 88 28
4 28 88 89 29
4 29 89 43 5
4 11 12 90 85
4 85 90 91 86
4 86 91 92 87
4 87 92 93 88
4 88 93 94 89
4 89 94 44 43
4 12 13 95 90
4 90 95 96 91
4 91 96 97 92
4 92 97 98 93
4 93 98 99 94
4 94 99 45 44
4 13 2 30 95
4 95 30 31 96
4 96 31 32 97
4 97 32 33 98
4 98 33 34 99
4 99 34 6 45
4 2 14 100 30
4 30 100 101 31
4 31 101 102 32
4 32 102 103 33
4 33 103 104 34
4 34 104 46 6
4 14 15 105 100
4 100 105 106 101
4 101 106 107 102
4 102 107 108 103
4 103 108 109 104
4 104 109 47 46
4 15 16 110 105
4 105 110 111 106
4 106 111 112 107
4 107 112 113 108
4 108 113 114 109
4 109 114 48 47
4 16 3 35 110
4 110 35 36 111
4 111 36 37 112
4 112 37 38 113
4 113 38 39 114
4 114 39 7 48
4 3 17 115 35
4 35 115 116 36
4 36 116 117 37
4 37 117 118 38
4 38 118 119 39
4 39 119 49 7
4 17 18 120 115
4 115 120 121 116
4 116 121 122 117
4 117 122 123 118
4 118 123 124 119
4 119 124 50 49
4 18 19 125 120
4 120 125 126 121
4 121 126 127 122
4 122 127 128 123
4 123 128 129 124
4 124 129 51 50
4 19 0 20 125
4 125 20 21 126
4 126 21 22 127
4 127 22 23 128
4 128 23 24 129
4 129 24 4 51

CELL_TYPES 128
9
9
9
9
9
9
9
9
9
9
9
9
9
9
9
9
9
9
9
9
9
9
9
9
9
9
9
9
9
9
9
9
9
9
9
9
9
9
9
9
9
9
9
9
9
9
9
9
9
9
9
9
9
9
9
9
9
9
9
9
9
9
9
9
9
9
9
9
9
9
9
9
9
9
9
9
9
9
9
9
9
9
9
9
9
9
9
9
9
9
9
9
9
9
9
9
9
9
9
9
9
9
9
9
9
9
9
9
9
9
9
9
9
9
9
9
9
9
9
9
9
9
9
9
9
9
9
9

CELL_DATA 128
SCALARS CellEntityIds int 1
LOOKUP_TABLE default
1
1
1
1
1
1
1
1
1
1
1
1
1
1
1
1
3
3
3
3
3
3
3
3
3
3
3
3
3
3
3
3
2
2
2
2
2
2
2
2
2
2
2
2
2
2
2
2
2
2
2
2
2
2
2
2
2
2
2
2
2
2
2
2
2
2
2
2
2
2
2
2
2
2
2
2
2
2
2
2
2
2
2
2
2
2
2
2
2
2
2
2
2
2
2
2
2
2
2
2
2
2
2
2
2
2
2
2
2
2
2
2
2
2
2
2
2
2
2
2
2
2
2
2
2
2
2
2
