# vtk DataFile Version 2.0
SoilFoundation, Created by Gmsh 4.9.5 
ASCII
DATASET UNSTRUCTURED_GRID
POINTS 230 double
-1 -1 0
1 -1 0
1 1 0
-1 1 0
-5 -5 0
5 -5 0
5 5 0
-5 5 0
-7 -7 0
7 -7 0
7 7 0
-7 7 0
-7 -7 3
7 -7 3
7 7 3
-7 7 3
-0.666666666667591 -1 0
-0.3333333333351818 -1 0
-2.750244476601438e-12 -1 0
0.3333333333314854 -1 0
0.6666666666657426 -1 0
1 -0.666666666667591 0
1 -0.3333333333351818 0
1 -2.750244476601438e-12 0
1 0.3333333333314854 0
1 0.6666666666657426 0
0.666666666667591 1 0
0.3333333333351818 1 0
2.750244476601438e-12 1 0
-0.3333333333314854 1 0
-0.6666666666657426 1 0
-1 0.666666666667591 0
-1 0.3333333333351818 0
-1 2.750244476601438e-12 0
-1 -0.3333333333314854 0
-1 -0.6666666666657426 0
-3.333333333333135 -5 0
-1.666666666671818 -5 0
-6.163070054299169e-12 -5 0
1.666666666662558 -5 0
3.33333333333128 -5 0
5 -3.333333333333135 0
5 -1.666666666671818 0
5 -6.163070054299169e-12 0
5 1.666666666662558 0
5 3.33333333333128 0
3.333333333333135 5 0
1.666666666671818 5 0
6.163070054299169e-12 5 0
-1.666666666662558 5 0
-3.33333333333128 5 0
-5 3.333333333333135 0
-5 1.666666666671818 0
-5 6.163070054299169e-12 0
-5 -1.666666666662558 0
-5 -3.33333333333128 0
-1.666666666667593 -1.666666666667593 0
-2.333333333333336 -2.333333333333336 0
-2.999999999997314 -2.999999999997314 0
-3.666666666668518 -3.666666666668518 0
-4.333333333336109 -4.333333333336109 0
1.666666666667593 -1.666666666667593 0
2.333333333333336 -2.333333333333336 0
2.999999999997314 -2.999999999997314 0
3.666666666668518 -3.666666666668518 0
4.333333333336109 -4.333333333336109 0
1.666666666667593 1.666666666667593 0
2.333333333333336 2.333333333333336 0
2.999999999997314 2.999999999997314 0
3.666666666668518 3.666666666668518 0
4.333333333336109 4.333333333336109 0
-1.666666666667593 1.666666666667593 0
-2.333333333333336 2.333333333333336 0
-2.999999999997314 2.999999999997314 0
-3.666666666668518 3.666666666668518 0
-4.333333333336109 4.333333333336109 0
-3.12105896682624e-12 -7 0
7 -3.12105896682624e-12 0
3.12105896682624e-12 7 0
-7 3.12105896682624e-12 0
-3.12105896682624e-12 -7 3
7 -3.12105896682624e-12 3
3.12105896682624e-12 7 3
-7 3.12105896682624e-12 3
-6 -6 0
6 -6 0
6 6 0
-6 6 0
-6.163070054299169e-12 -5 0
5 -6.163070054299169e-12 0
6.163070054299169e-12 5 0
-5 6.163070054299169e-12 0
-7 -7 1.499999999994286
7 -7 1.499999999994286
7 7 1.499999999994286
-7 7 1.499999999994286
-0.6666666666660508 0.6666666666672829 0
-0.3333333333321015 0.6666666666669749 0
1.833477814017215e-12 0.6666666666666667 0
0.3333333333345657 0.6666666666663587 0
0.6666666666672829 0.6666666666660508 0
-0.6666666666663589 0.3333333333345657 0
-0.3333333333327175 0.3333333333339498 0
9.16766662584223e-13 0.3333333333333335 0
0.3333333333339497 0.3333333333327175 0
0.6666666666669749 0.3333333333321015 0
-0.6666666666666666 1.833496317734292e-12 0
-0.3333333333333337 9.167481588671464e-13 0
0 0 0
0.3333333333333336 -9.167481588671462e-13 0
0.6666666666666667 -1.833496317734292e-12 0
-0.6666666666669747 -0.3333333333321013 0
-0.3333333333339496 -0.3333333333327176 0
-9.167111514329918e-13 -0.3333333333333336 0
0.3333333333327175 -0.3333333333339497 0
0.6666666666663588 -0.3333333333345657 0
-0.6666666666672831 -0.6666666666660506 0
-0.3333333333345656 -0.6666666666663588 0
-1.833533325168446e-12 -0.6666666666666667 0
0.3333333333321014 -0.6666666666669749 0
0.6666666666660508 -0.6666666666672829 0
-1.111111111112465 -1.666666666667593 0
-0.5555555555582634 -1.666666666667592 0
-3.319067243268137e-12 -1.666666666667593 0
0.5555555555536398 -1.666666666667593 0
1.111111111110616 -1.666666666667593 0
-1.555555555556107 -2.333333333333336 0
-0.7777777777807275 -2.333333333333336 0
-3.887945521086067e-12 -2.333333333333336 0
0.7777777777751769 -2.333333333333336 0
1.555555555554257 -2.333333333333336 0
-1.999999999998572 -2.999999999997313 0
-1.000000000002605 -2.999999999997313 0
-4.456851554479613e-12 -2.999999999997314 0
0.9999999999961267 -2.999999999997313 0
1.999999999996721 -2.999999999997313 0
-2.444444444445854 -3.666666666668518 0
-1.22222222222689 -3.666666666668517 0
-5.02517472078523e-12 -3.666666666668518 0
1.222222222219484 -3.666666666668518 0
2.444444444444001 -3.666666666668518 0
-2.888888888890729 -4.333333333336109 0
-1.444444444449971 -4.333333333336109 0
-5.594510965600819e-12 -4.333333333336109 0
1.444444444441638 -4.333333333336109 0
2.888888888888875 -4.333333333336109 0
1.666666666667593 -1.111111111112465 0
1.666666666667592 -0.5555555555582634 0
1.666666666667593 -3.319067243268137e-12 0
1.666666666667593 0.5555555555536398 0
1.666666666667593 1.111111111110616 0
2.333333333333336 -1.555555555556107 0
2.333333333333336 -0.7777777777807275 0
2.333333333333336 -3.887945521086067e-12 0
2.333333333333336 0.7777777777751769 0
2.333333333333336 1.555555555554257 0
2.999999999997313 -1.999999999998572 0
2.999999999997313 -1.000000000002605 0
2.999999999997314 -4.456851554479613e-12 0
2.999999999997313 0.9999999999961267 0
2.999999999997313 1.999999999996721 0
3.666666666668518 -2.444444444445854 0
3.666666666668517 -1.22222222222689 0
3.666666666668518 -5.02517472078523e-12 0
3.666666666668518 1.222222222219484 0
3.666666666668518 2.444444444444001 0
4.333333333336109 -2.888888888890729 0
4.333333333336109 -1.444444444449971 0
4.333333333336109 -5.594510965600819e-12 0
4.333333333336109 1.444444444441638 0
4.333333333336109 2.888888888888875 0
1.111111111112465 1.666666666667593 0
0.5555555555582634 1.666666666667592 0
3.319067243268137e-12 1.666666666667593 0
-0.5555555555536398 1.666666666667593 0
-1.111111111110616 1.666666666667593 0
1.555555555556107 2.333333333333336 0
0.7777777777807275 2.333333333333336 0
3.887945521086067e-12 2.333333333333336 0
-0.7777777777751769 2.333333333333336 0
-1.555555555554257 2.333333333333336 0
1.999999999998572 2.999999999997313 0
1.000000000002605 2.999999999997313 0
4.456851554479613e-12 2.999999999997314 0
-0.9999999999961267 2.999999999997313 0
-1.999999999996721 2.999999999997313 0
2.444444444445854 3.666666666668518 0
1.22222222222689 3.666666666668517 0
5.02517472078523e-12 3.666666666668518 0
-1.222222222219484 3.666666666668518 0
-2.444444444444001 3.666666666668518 0
2.888888888890729 4.333333333336109 0
1.444444444449971 4.333333333336109 0
5.594510965600819e-12 4.333333333336109 0
-1.444444444441638 4.333333333336109 0
-2.888888888888875 4.333333333336109 0
-1.666666666667593 1.111111111112465 0
-1.666666666667592 0.5555555555582634 0
-1.666666666667593 3.319067243268137e-12 0
-1.666666666667593 -0.5555555555536398 0
-1.666666666667593 -1.111111111110616 0
-2.333333333333336 1.555555555556107 0
-2.333333333333336 0.7777777777807275 0
-2.333333333333336 3.887945521086067e-12 0
-2.333333333333336 -0.7777777777751769 0
-2.333333333333336 -1.555555555554257 0
-2.999999999997313 1.999999999998572 0
-2.999999999997313 1.000000000002605 0
-2.999999999997314 4.456851554479613e-12 0
-2.999999999997313 -0.9999999999961267 0
-2.999999999997313 -1.999999999996721 0
-3.666666666668518 2.444444444445854 0
-3.666666666668517 1.22222222222689 0
-3.666666666668518 5.02517472078523e-12 0
-3.666666666668518 -1.222222222219484 0
-3.666666666668518 -2.444444444444001 0
-4.333333333336109 2.888888888890729 0
-4.333333333336109 1.444444444449971 0
-4.333333333336109 5.594510965600819e-12 0
-4.333333333336109 -1.444444444441638 0
-4.333333333336109 -2.888888888888875 0
-4.642064510562705e-12 -6 0
6 -4.642064510562705e-12 0
4.642064510562705e-12 6 0
-6 4.642064510562705e-12 0
-7.000000000000001 3.12105896682624e-12 1.499999999994286
3.12105896682624e-12 7.000000000000001 1.499999999994286
7.000000000000001 -3.12105896682624e-12 1.499999999994286
-3.12105896682624e-12 -7.000000000000001 1.499999999994286
0 0 3

CELLS 216 1080
4 3 30 96 31
4 30 29 97 96
4 29 28 98 97
4 28 27 99 98
4 27 26 100 99
4 26 2 25 100
4 31 96 101 32
4 96 97 102 101
4 97 98 103 102
4 98 99 104 103
4 99 100 105 104
4 100 25 24 105
4 32 101 106 33
4 101 102 107 106
4 102 103 108 107
4 103 104 109 108
4 104 105 110 109
4 105 24 23 110
4 33 106 111 34
4 106 107 112 111
4 107 108 113 112
4 108 109 114 113
4 109 110 115 114
4 110 23 22 115
4 34 111 116 35
4 111 112 117 116
4 112 113 118 117
4 113 114 119 118
4 114 115 120 119
4 115 22 21 120
4 35 116 16 0
4 116 117 17 16
4 117 118 18 17
4 118 119 19 18
4 119 120 20 19
4 120 21 1 20
4 0 16 121 56
4 16 17 122 121
4 17 18 123 122
4 18 19 124 123
4 19 20 125 124
4 20 1 61 125
4 56 121 126 57
4 121 122 127 126
4 122 123 128 127
4 123 124 129 128
4 124 125 130 129
4 125 61 62 130
4 57 126 131 58
4 126 127 132 131
4 127 128 133 132
4 128 129 134 133
4 129 130 135 134
4 130 62 63 135
4 58 131 136 59
4 131 132 137 136
4 132 133 138 137
4 133 134 139 138
4 134 135 140 139
4 135 63 64 140
4 59 136 141 60
4 136 137 142 141
4 137 138 143 142
4 138 139 144 143
4 139 140 145 144
4 140 64 65 145
4 60 141 36 4
4 141 142 37 36
4 142 143 38 37
4 143 144 39 38
4 144 145 40 39
4 145 65 5 40
4 1 21 146 61
4 21 22 147 146
4 22 23 148 147
4 23 24 149 148
4 24 25 150 149
4 25 2 66 150
4 61 146 151 62
4 146 147 152 151
4 147 148 153 152
4 148 149 154 153
4 149 150 155 154
4 150 66 67 155
4 62 151 156 63
4 151 152 157 156
4 152 153 158 157
4 153 154 159 158
4 154 155 160 159
4 155 67 68 160
4 63 156 161 64
4 156 157 162 161
4 157 158 163 162
4 158 159 164 163
4 159 160 165 164
4 160 68 69 165
4 64 161 166 65
4 161 162 167 166
4 162 163 168 167
4 163 164 169 168
4 164 165 170 169
4 165 69 70 170
4 65 166 41 5
4 166 167 42 41
4 167 168 43 42
4 168 169 44 43
4 169 170 45 44
4 170 70 6 45
4 2 26 171 66
4 26 27 172 171
4 27 28 173 172
4 28 29 174 173
4 29 30 175 174
4 30 3 71 175
4 66 171 176 67
4 171 172 177 176
4 172 173 178 177
4 173 174 179 178
4 174 175 180 179
4 175 71 72 180
4 67 176 181 68
4 176 177 182 181
4 177 178 183 182
4 178 179 184 183
4 179 180 185 184
4 180 72 73 185
4 68 181 186 69
4 181 182 187 186
4 182 183 188 187
4 183 184 189 188
4 184 185 190 189
4 185 73 74 190
4 69 186 191 70
4 186 187 192 191
4 187 188 193 192
4 188 189 194 193
4 189 190 195 194
4 190 74 75 195
4 70 191 46 6
4 191 192 47 46
4 192 193 48 47
4 193 194 49 48
4 194 195 50 49
4 195 75 7 50
4 3 31 196 71
4 31 32 197 196
4 32 33 198 197
4 33 34 199 198
4 34 35 200 199
4 35 0 56 200
4 71 196 201 72
4 196 197 202 201
4 197 198 203 202
4 198 199 204 203
4 199 200 205 204
4 200 56 57 205
4 72 201 206 73
4 201 202 207 206
4 202 203 208 207
4 203 204 209 208
4 204 205 210 209
4 205 57 58 210
4 73 206 211 74
4 206 207 212 211
4 207 208 213 212
4 208 209 214 213
4 209 210 215 214
4 210 58 59 215
4 74 211 216 75
4 211 212 217 216
4 212 213 218 217
4 213 214 219 218
4 214 215 220 219
4 215 59 60 220
4 75 216 51 7
4 216 217 52 51
4 217 218 53 52
4 218 219 54 53
4 219 220 55 54
4 220 60 4 55
4 4 88 221 84
4 84 221 76 8
4 88 5 85 221
4 221 85 9 76
4 5 89 222 85
4 85 222 77 9
4 89 6 86 222
4 222 86 10 77
4 6 90 223 86
4 86 223 78 10
4 90 7 87 223
4 223 87 11 78
4 7 91 224 87
4 87 224 79 11
4 91 4 84 224
4 224 84 8 79
4 15 95 225 83
4 95 11 79 225
4 83 225 92 12
4 225 79 8 92
4 14 94 226 82
4 94 10 78 226
4 82 226 95 15
4 226 78 11 95
4 13 93 227 81
4 93 9 77 227
4 81 227 94 14
4 227 77 10 94
4 12 92 228 80
4 92 8 76 228
4 80 228 93 13
4 228 76 9 93
4 12 80 229 83
4 83 229 82 15
4 80 13 81 229
4 229 81 14 82

CELL_TYPES 216
9
9
9
9
9
9
9
9
9
9
9
9
9
9
9
9
9
9
9
9
9
9
9
9
9
9
9
9
9
9
9
9
9
9
9
9
9
9
9
9
9
9
9
9
9
9
9
9
9
9
9
9
9
9
9
9
9
9
9
9
9
9
9
9
9
9
9
9
9
9
9
9
9
9
9
9
9
9
9
9
9
9
9
9
9
9
9
9
9
9
9
9
9
9
9
9
9
9
9
9
9
9
9
9
9
9
9
9
9
9
9
9
9
9
9
9
9
9
9
9
9
9
9
9
9
9
9
9
9
9
9
9
9
9
9
9
9
9
9
9
9
9
9
9
9
9
9
9
9
9
9
9
9
9
9
9
9
9
9
9
9
9
9
9
9
9
9
9
9
9
9
9
9
9
9
9
9
9
9
9
9
9
9
9
9
9
9
9
9
9
9
9
9
9
9
9
9
9
9
9
9
9
9
9
9
9
9
9
9
9
9
9
9
9
9
9

CELL_DATA 216
SCALARS CellEntityIds int 1
LOOKUP_TABLE default
1
1
1
1
1
1
1
1
1
1
1
1
1
1
1
1
1
1
1
1
1
1
1
1
1
1
1
1
1
1
1
1
1
1
1
1
2
2
2
2
2
2
2
2
2
2
2
2
2
2
2
2
2
2
2
2
2
2
2
2
2
2
2
2
2
2
2
2
2
2
2
2
2
2
2
2
2
2
2
2
2
2
2
2
2
2
2
2
2
2
2
2
2
2
2
2
2
2
2
2
2
2
2
2
2
2
2
2
2
2
2
2
2
2
2
2
2
2
2
2
2
2
2
2
2
2
2
2
2
2
2
2
2
2
2
2
2
2
2
2
2
2
2
2
2
2
2
2
2
2
2
2
2
2
2
2
2
2
2
2
2
2
2
2
2
2
2
2
2
2
2
2
2
2
2
2
2
2
2
2
3
3
3
3
3
3
3
3
3
3
3
3
3
3
3
3
3
3
3
3
3
3
3
3
3
3
3
3
3
3
3
3
3
3
3
3
