# vtk DataFile Version 2.0
SoilFoundation, Created by Gmsh 4.9.5 
ASCII
DATASET UNSTRUCTURED_GRID
POINTS 194 double
-1 -1 0
1 -1 0
1 1 0
-1 1 0
-5 -5 0
5 -5 0
5 5 0
-5 5 0
-0.666666666667591 -1 0
-0.3333333333351819 -1 0
-2.752575944953151e-12 -1 0
0.3333333333314838 -1 0
0.6666666666657421 -1 0
1 -0.666666666667591 0
1 -0.3333333333351819 0
1 -2.752575944953151e-12 0
1 0.3333333333314838 0
1 0.6666666666657421 0
0.666666666667591 1 0
0.3333333333351819 1 0
2.752575944953151e-12 1 0
-0.3333333333314838 1 0
-0.6666666666657421 1 0
-1 0.666666666667591 0
-1 0.3333333333351819 0
-1 2.752575944953151e-12 0
-1 -0.3333333333314838 0
-1 -0.6666666666657421 0
-2.500000000002472 -5 0
-6.158629162200668e-12 -5 0
2.49999999999692 -5 0
5 -2.500000000002472 0
5 -6.158629162200668e-12 0
5 2.49999999999692 0
2.500000000002472 5 0
6.158629162200668e-12 5 0
-2.49999999999692 5 0
-5 2.500000000002472 0
-5 6.158629162200668e-12 0
-5 -2.49999999999692 0
-1.259647650929581 -1.259647650929581 0
-1.617013308740786 -1.617013308740786 0
-2.108873076923425 -2.108873076923425 0
-2.785843511988889 -2.785843511988889 0
-3.717590950657677 -3.717590950657677 0
1.259647650929581 -1.259647650929581 0
1.617013308740786 -1.617013308740786 0
2.108873076923425 -2.108873076923425 0
2.785843511988889 -2.785843511988889 0
3.717590950657677 -3.717590950657677 0
1.259647650929581 1.259647650929581 0
1.617013308740786 1.617013308740786 0
2.108873076923425 2.108873076923425 0
2.785843511988889 2.785843511988889 0
3.717590950657677 3.717590950657677 0
-1.259647650929581 1.259647650929581 0
-1.617013308740786 1.617013308740786 0
-2.108873076923425 2.108873076923425 0
-2.785843511988889 2.785843511988889 0
-3.717590950657677 3.717590950657677 0
-0.1754841513009846 0.6222876128076652 0
-0.7150789509935775 -0.191297733162512 0
0.1545445430058334 -0.7098514108377652 0
0.60546408328556 0.1974716618131437 0
-0.3832258630903427 -0.7092814238691231 0
0.6975359879780734 -0.3854390477305481 0
0.4052579586352578 0.7142782784611459 0
-0.6997025522250083 0.4177946674697138 0
-0.1512055244970426 -0.7096645071870463 0
-0.007827335851189374 -0.416597685589659 0
0.3885440998116052 -0.4107999642090073 0
0.1489512911251728 -0.1393895792871255 0
-0.2111257099807401 -0.0495133792713277 0
0.04866048972892656 0.05868592340163034 0
-0.3337759680237731 0.2351552643235522 0
0.3103066889648781 0.1350440391960242 0
0.2103709937833325 0.3987840720170681 0
0.6743637855087924 -0.07805543148964081 0
-0.6180569513278871 0.1367213910954349 0
-0.4135029576435454 -0.4177288640950516 0
0.3792098322971414 -0.7052081111182549 0
0.7101066303217205 0.5000511279759099 0
-0.7111253721191724 -0.4024011089915708 0
-0.5015456091148973 0.7203012944449211 0
0.1076823174870036 0.6874022064929698 0
-0.06280961323232226 0.3280539925741983 0
0.4826920959476994 0.4217390773625331 0
-0.4302919749048892 0.5133641788912394 0
0.3687563848391423 -0.1275818311677321 0
-0.4962157269003892 -0.1357597363451765 0
-0.6907056716636646 -0.6941274258663637 0
0.6867120544795325 -0.6905066738923674 0
0.6997823815707829 0.710515379163387 0
-0.7095458454037763 0.7056296240849257 0
0.1154812954859618 -1.403099351684282 0
-1.363593901614764 -1.899329036317213 0
1.199303896929149 -1.781875149522941 0
-0.5316079423667277 -1.383108794674534 0
2.146689467401419 -3.140405474047273 0
-1.854156863403531 -2.864169466945286 0
0.9117923628671768 -1.35479662015129 0
0.7026413890296954 -1.877302562338705 0
0.9166603764852748 -2.549183900476088 0
0.1568997960818793 -2.619794425169496 0
1.305807747799576 -3.513072274983596 0
-1.010775725112949 -1.494978788562455 0
-0.7130345766783915 -1.717420211815441 0
-1.088647128212704 -2.242010118248668 0
-0.3250522267809779 -1.870516200737116 0
-1.108080227575036 -3.458405758142165 0
-0.2722638133542784 -1.401974274131738 0
0.51607553602972 -1.404325229291145 0
-2.77592316564606 -3.818570438390603 0
2.854267706056345 -3.876117782959112 0
-0.5790405140910215 -2.527454621218625 0
1.589175460532957 -2.394423409882704 0
-1.788926187755532 -2.262076447828344 0
0.08571314723141038 -3.672218397910896 0
0.1633861316972895 -1.935951368972113 0
1.403099351684282 0.1154812954859619 0
1.899329036317213 -1.363593901614764 0
1.781875149522941 1.199303896929149 0
1.383108794674534 -0.5316079423667277 0
3.140405474047272 2.14668946740142 0
2.864169466945286 -1.854156863403532 0
1.35479662015129 0.9117923628671768 0
1.877302562338705 0.7026413890296956 0
2.549183900476088 0.916660376485275 0
2.619794425169496 0.1568997960818794 0
3.513072274983596 1.305807747799576 0
1.494978788562455 -1.010775725112949 0
1.717420211815441 -0.7130345766783915 0
2.242010118248668 -1.088647128212704 0
1.870516200737116 -0.3250522267809778 0
3.458405758142165 -1.108080227575036 0
1.401974274131738 -0.2722638133542783 0
1.404325229291145 0.51607553602972 0
3.818570438390603 -2.77592316564606 0
3.876117782959112 2.854267706056345 0
2.527454621218625 -0.5790405140910215 0
2.394423409882704 1.589175460532957 0
2.262076447828344 -1.788926187755532 0
3.672218397910896 0.08571314723141044 0
1.935951368972113 0.1633861316972897 0
-0.1154812954859618 1.403099351684282 0
1.363593901614764 1.899329036317213 0
-1.199303896929149 1.781875149522941 0
0.5316079423667277 1.383108794674534 0
-2.146689467401419 3.140405474047273 0
1.854156863403532 2.864169466945286 0
-0.9117923628671768 1.35479662015129 0
-0.7026413890296954 1.877302562338705 0
-0.9166603764852748 2.549183900476088 0
-0.1568997960818792 2.619794425169496 0
-1.305807747799575 3.513072274983596 0
1.010775725112949 1.494978788562455 0
0.7130345766783915 1.717420211815441 0
1.088647128212704 2.242010118248668 0
0.3250522267809779 1.870516200737116 0
1.108080227575036 3.458405758142165 0
0.2722638133542784 1.401974274131738 0
-0.51607553602972 1.404325229291145 0
2.77592316564606 3.818570438390603 0
-2.854267706056345 3.876117782959112 0
0.5790405140910218 2.527454621218625 0
-1.589175460532957 2.394423409882704 0
1.788926187755532 2.262076447828344 0
-0.08571314723141027 3.672218397910896 0
-0.1633861316972895 1.935951368972113 0
-1.403099351684282 -0.1154812954859619 0
-1.899329036317213 1.363593901614764 0
-1.781875149522941 -1.199303896929149 0
-1.383108794674534 0.5316079423667277 0
-3.140405474047272 -2.14668946740142 0
-2.864169466945286 1.854156863403532 0
-1.35479662015129 -0.9117923628671768 0
-1.877302562338705 -0.7026413890296954 0
-2.549183900476088 -0.916660376485275 0
-2.619794425169496 -0.1568997960818794 0
-3.513072274983596 -1.305807747799576 0
-1.494978788562455 1.010775725112949 0
-1.717420211815441 0.7130345766783915 0
-2.242010118248668 1.088647128212704 0
-1.870516200737116 0.3250522267809779 0
-3.458405758142165 1.108080227575036 0
-1.401974274131738 0.2722638133542784 0
-1.404325229291145 -0.51607553602972 0
-3.818570438390603 2.77592316564606 0
-3.876117782959112 -2.854267706056345 0
-2.527454621218625 0.5790405140910215 0
-2.394423409882704 -1.589175460532957 0
-2.262076447828344 1.788926187755532 0
-3.672218397910896 -0.08571314723141042 0
-1.935951368972113 -0.1633861316972896 0

CELLS 185 925
4 65 70 88 77
4 82 61 89 79
4 84 76 85 60
4 84 66 86 76
4 75 63 77 88
4 16 15 77 63
4 89 61 25 78
4 64 68 10 9
4 65 77 15 14
4 67 78 25 24
4 69 68 64 79
4 10 68 69 62
4 69 72 73 71
4 74 78 67 87
4 69 70 80 62
4 21 20 84 60
4 75 73 85 76
4 10 62 80 11
4 86 81 16 63
4 87 83 21 60
4 25 61 82 26
4 69 71 88 70
4 69 79 89 72
4 27 90 8 0
4 12 91 13 1
4 17 92 18 2
4 22 93 23 3
4 66 84 20 19
4 72 74 85 73
4 63 75 76 86
4 73 75 88 71
4 78 74 72 89
4 21 83 93 22
4 11 80 91 12
4 16 81 92 17
4 26 82 90 27
4 9 8 90 64
4 14 13 91 65
4 19 18 92 66
4 24 23 93 67
4 60 85 74 87
4 87 67 93 83
4 79 64 90 82
4 70 65 91 80
4 86 66 92 81
4 100 45 46 96
4 8 97 106 105
4 115 98 104 102
4 8 105 40 0
4 114 109 99 107
4 28 109 117 29
4 96 101 111 100
4 30 29 117 104
4 41 40 105 95
4 43 42 116 99
4 48 98 115 47
4 45 100 12 1
4 118 103 114 108
4 106 97 110 108
4 42 41 95 116
4 47 115 96 46
4 109 114 103 117
4 118 101 102 103
4 44 43 99 112
4 49 113 98 48
4 101 118 94 111
4 102 104 117 103
4 11 12 100 111
4 110 94 118 108
4 8 9 110 97
4 105 106 107 95
4 108 114 107 106
4 10 11 111 94
4 9 10 94 110
4 99 116 95 107
4 101 96 115 102
4 112 28 4 44
4 113 49 5 30
4 99 109 28 112
4 98 113 30 104
4 125 50 51 121
4 13 122 131 130
4 140 123 129 127
4 13 130 45 1
4 139 134 124 132
4 31 134 142 32
4 121 126 136 125
4 33 32 142 129
4 46 45 130 120
4 48 47 141 124
4 53 123 140 52
4 50 125 17 2
4 143 128 139 133
4 131 122 135 133
4 47 46 120 141
4 52 140 121 51
4 134 139 128 142
4 143 126 127 128
4 49 48 124 137
4 54 138 123 53
4 126 143 119 136
4 127 129 142 128
4 16 17 125 136
4 135 119 143 133
4 13 14 135 122
4 130 131 132 120
4 133 139 132 131
4 15 16 136 119
4 14 15 119 135
4 124 141 120 132
4 126 121 140 127
4 137 31 5 49
4 138 54 6 33
4 124 134 31 137
4 123 138 33 129
4 150 55 56 146
4 18 147 156 155
4 165 148 154 152
4 18 155 50 2
4 164 159 149 157
4 34 159 167 35
4 146 151 161 150
4 36 35 167 154
4 51 50 155 145
4 53 52 166 149
4 58 148 165 57
4 55 150 22 3
4 168 153 164 158
4 156 147 160 158
4 52 51 145 166
4 57 165 146 56
4 159 164 153 167
4 168 151 152 153
4 54 53 149 162
4 59 163 148 58
4 151 168 144 161
4 152 154 167 153
4 21 22 150 161
4 160 144 168 158
4 18 19 160 147
4 155 156 157 145
4 158 164 157 156
4 20 21 161 144
4 19 20 144 160
4 149 166 145 157
4 151 146 165 152
4 162 34 6 54
4 163 59 7 36
4 149 159 34 162
4 148 163 36 154
4 175 40 41 171
4 23 172 181 180
4 190 173 179 177
4 23 180 55 3
4 189 184 174 182
4 37 184 192 38
4 171 176 186 175
4 39 38 192 179
4 56 55 180 170
4 58 57 191 174
4 43 173 190 42
4 40 175 27 0
4 193 178 189 183
4 181 172 185 183
4 57 56 170 191
4 42 190 171 41
4 184 189 178 192
4 193 176 177 178
4 59 58 174 187
4 44 188 173 43
4 176 193 169 186
4 177 179 192 178
4 26 27 175 186
4 185 169 193 183
4 23 24 185 172
4 180 181 182 170
4 183 189 182 181
4 25 26 186 169
4 24 25 169 185
4 174 191 170 182
4 176 171 190 177
4 188 44 4 39
4 187 37 7 59
4 174 184 37 187
4 173 188 39 179

CELL_TYPES 185
9
9
9
9
9
9
9
9
9
9
9
9
9
9
9
9
9
9
9
9
9
9
9
9
9
9
9
9
9
9
9
9
9
9
9
9
9
9
9
9
9
9
9
9
9
9
9
9
9
9
9
9
9
9
9
9
9
9
9
9
9
9
9
9
9
9
9
9
9
9
9
9
9
9
9
9
9
9
9
9
9
9
9
9
9
9
9
9
9
9
9
9
9
9
9
9
9
9
9
9
9
9
9
9
9
9
9
9
9
9
9
9
9
9
9
9
9
9
9
9
9
9
9
9
9
9
9
9
9
9
9
9
9
9
9
9
9
9
9
9
9
9
9
9
9
9
9
9
9
9
9
9
9
9
9
9
9
9
9
9
9
9
9
9
9
9
9
9
9
9
9
9
9
9
9
9
9
9
9
9
9
9
9
9
9

CELL_DATA 185
SCALARS CellEntityIds int 1
LOOKUP_TABLE default
1
1
1
1
1
1
1
1
1
1
1
1
1
1
1
1
1
1
1
1
1
1
1
1
1
1
1
1
1
1
1
1
1
1
1
1
1
1
1
1
1
1
1
1
1
2
2
2
2
2
2
2
2
2
2
2
2
2
2
2
2
2
2
2
2
2
2
2
2
2
2
2
2
2
2
2
2
2
2
2
2
2
2
2
2
2
2
2
2
2
2
2
2
2
2
2
2
2
2
2
2
2
2
2
2
2
2
2
2
2
2
2
2
2
2
2
2
2
2
2
2
2
2
2
2
2
2
2
2
2
2
2
2
2
2
2
2
2
2
2
2
2
2
2
2
2
2
2
2
2
2
2
2
2
2
2
2
2
2
2
2
2
2
2
2
2
2
2
2
2
2
2
2
2
2
2
2
2
2
2
2
2
2
2
2
