# vtk DataFile Version 2.0
barra, Created by Gmsh 4.9.5 
ASCII
DATASET UNSTRUCTURED_GRID
POINTS 34 double
0 0 0
0 1 0
0 1 1
0 0 1
10 0 0
10 1 0
10 1 1
10 0 1
0 0.4999999999986921 0
0 1 0.4999999999986921
0 0.5000000000020595 1
0 0 0.5000000000020595
3.333333333326263 0 0
6.6666666666616 0 0
3.333333333326263 1 0
6.6666666666616 1 0
3.333333333326263 1 1
6.6666666666616 1 1
3.333333333326263 0 1
6.6666666666616 0 1
10 0.4999999999986921 0
10 1 0.4999999999986921
10 0.5000000000020595 1
10 0 0.5000000000020595
0 0.5000000000003758 0.5000000000003758
10 0.5000000000003758 0.5000000000003758
3.333333333326263 0.4999999999986922 0
6.6666666666616 0.4999999999986922 0
3.333333333326263 1 0.4999999999986922
6.6666666666616 1 0.4999999999986922
3.333333333326263 0.5000000000020595 1
6.6666666666616 0.5000000000020595 1
3.333333333326263 0 0.5000000000020595
6.6666666666616 0 0.5000000000020595

CELLS 32 160
4 3 10 24 11
4 10 2 9 24
4 11 24 8 0
4 24 9 1 8
4 4 20 25 23
4 23 25 22 7
4 20 5 21 25
4 25 21 6 22
4 0 8 26 12
4 12 26 27 13
4 13 27 20 4
4 8 1 14 26
4 26 14 15 27
4 27 15 5 20
4 1 9 28 14
4 14 28 29 15
4 15 29 21 5
4 9 2 16 28
4 28 16 17 29
4 29 17 6 21
4 2 10 30 16
4 16 30 31 17
4 17 31 22 6
4 10 3 18 30
4 30 18 19 31
4 31 19 7 22
4 3 11 32 18
4 18 32 33 19
4 19 33 23 7
4 11 0 12 32
4 32 12 13 33
4 33 13 4 23

CELL_TYPES 32
9
9
9
9
9
9
9
9
9
9
9
9
9
9
9
9
9
9
9
9
9
9
9
9
9
9
9
9
9
9
9
9

CELL_DATA 32
SCALARS CellEntityIds int 1
LOOKUP_TABLE default
1
1
1
1
3
3
3
3
2
2
2
2
2
2
2
2
2
2
2
2
2
2
2
2
2
2
2
2
2
2
2
2
