# vtk DataFile Version 2.0
SoilFoundation, Created by Gmsh 4.9.5 
ASCII
DATASET UNSTRUCTURED_GRID
POINTS 129 double
-1 -1 0
1 -1 0
1 1 0
-1 1 0
-5 -5 0
5 -5 0
5 5 0
-5 5 0
-1 -5 0
1 -5 0
5 -1 0
5 1 0
1 5 0
-1 5 0
-5 1 0
-5 -1 0
-8.333333333333334 -8.333333333333334 0
8.333333333333334 -8.333333333333334 0
8.333333333333334 8.333333333333334 0
-8.333333333333334 8.333333333333334 0
-8.333333333333334 -8.333333333333334 5
8.333333333333334 -8.333333333333334 5
8.333333333333334 8.333333333333334 5
-8.333333333333334 8.333333333333334 5
-2.750244476601438e-12 -1 0
1 -2.750244476601438e-12 0
2.750244476601438e-12 1 0
-1 2.750244476601438e-12 0
-4.000000000005553 -5 0
-3.000000000011019 -5 0
-2.000000000005553 -5 0
-1 -4.000000000005553 0
-1 -3.000000000011019 0
-1 -2.000000000005553 0
-2.000000000001346 -1 0
-2.999999999997314 -1 0
-4.000000000004077 -1 0
-5 -2.000000000001346 0
-5 -2.999999999997314 0
-5 -4.000000000004077 0
-2.750244476601438e-12 -5 0
1 -4.000000000005553 0
1 -3.000000000011019 0
1 -2.000000000005553 0
2.000000000001346 -5 0
2.999999999997314 -5 0
4.000000000004077 -5 0
5 -4.000000000005553 0
5 -3.000000000011019 0
5 -2.000000000005553 0
4.000000000005553 -1 0
3.000000000011019 -1 0
2.000000000005553 -1 0
5 -2.750244476601438e-12 0
4.000000000005553 1 0
3.000000000011019 1 0
2.000000000005553 1 0
5 2.000000000001346 0
5 2.999999999997314 0
5 4.000000000004077 0
4.000000000005553 5 0
3.000000000011019 5 0
2.000000000005553 5 0
1 4.000000000005553 0
1 3.000000000011019 0
1 2.000000000005553 0
2.750244476601438e-12 5 0
-1 4.000000000005553 0
-1 3.000000000011019 0
-1 2.000000000005553 0
-2.000000000001346 5 0
-2.999999999997314 5 0
-4.000000000004077 5 0
-5 4.000000000005553 0
-5 3.000000000011019 0
-5 2.000000000005553 0
-4.000000000005553 1 0
-3.000000000011019 1 0
-2.000000000005553 1 0
-5 2.750244476601438e-12 0
0 0 0
-4.000000000004445 -2.000000000002398 0
-3.000000000000739 -2.00000000000345 0
-2.000000000002398 -2.000000000004501 0
-4.000000000004815 -3.00000000000074 0
-3.000000000004166 -3.000000000004166 0
-2.00000000000345 -3.000000000007593 0
-4.000000000005183 -4.000000000004445 0
-3.000000000007592 -4.000000000004815 0
-2.000000000004501 -4.000000000005183 0
-2.750244476601438e-12 -4.000000000005553 0
-2.750244476601438e-12 -3.000000000011019 0
-2.750244476601438e-12 -2.000000000005553 0
2.000000000002398 -4.000000000005553 0
3.00000000000074 -4.000000000005553 0
4.000000000004446 -4.000000000005553 0
2.00000000000345 -3.000000000011019 0
3.000000000004166 -3.000000000011019 0
4.000000000004815 -3.000000000011019 0
2.000000000004501 -2.000000000005553 0
3.000000000007593 -2.000000000005553 0
4.000000000005183 -2.000000000005553 0
4.000000000005553 -2.750244476601438e-12 0
3.000000000011019 -2.750244476601438e-12 0
2.000000000005553 -2.750244476601438e-12 0
4.000000000005553 2.000000000002398 0
4.000000000005553 3.00000000000074 0
4.000000000005553 4.000000000004446 0
3.000000000011019 2.00000000000345 0
3.000000000011019 3.000000000004166 0
3.000000000011019 4.000000000004815 0
2.000000000005553 2.000000000004501 0
2.000000000005553 3.000000000007593 0
2.000000000005553 4.000000000005183 0
2.750244476601438e-12 4.000000000005553 0
2.750244476601438e-12 3.000000000011019 0
2.750244476601438e-12 2.000000000005553 0
-2.000000000002398 4.000000000005553 0
-3.00000000000074 4.000000000005553 0
-4.000000000004446 4.000000000005553 0
-2.00000000000345 3.000000000011019 0
-3.000000000004166 3.000000000011019 0
-4.000000000004815 3.000000000011019 0
-2.000000000004501 2.000000000005553 0
-3.000000000007593 2.000000000005553 0
-4.000000000005183 2.000000000005553 0
-4.000000000004815 2.750244476601438e-12 0
-3.000000000004166 2.750244476601438e-12 0
-2.00000000000345 2.750244476601438e-12 0

CELLS 109 545
4 3 26 80 27
4 26 2 25 80
4 27 80 24 0
4 80 25 1 24
4 15 36 81 37
4 36 35 82 81
4 35 34 83 82
4 34 0 33 83
4 37 81 84 38
4 81 82 85 84
4 82 83 86 85
4 83 33 32 86
4 38 84 87 39
4 84 85 88 87
4 85 86 89 88
4 86 32 31 89
4 39 87 28 4
4 87 88 29 28
4 88 89 30 29
4 89 31 8 30
4 8 31 90 40
4 40 90 41 9
4 31 32 91 90
4 90 91 42 41
4 32 33 92 91
4 91 92 43 42
4 33 0 24 92
4 92 24 1 43
4 9 41 93 44
4 44 93 94 45
4 45 94 95 46
4 46 95 47 5
4 41 42 96 93
4 93 96 97 94
4 94 97 98 95
4 95 98 48 47
4 42 43 99 96
4 96 99 100 97
4 97 100 101 98
4 98 101 49 48
4 43 1 52 99
4 99 52 51 100
4 100 51 50 101
4 101 50 10 49
4 10 50 102 53
4 53 102 54 11
4 50 51 103 102
4 102 103 55 54
4 51 52 104 103
4 103 104 56 55
4 52 1 25 104
4 104 25 2 56
4 11 54 105 57
4 57 105 106 58
4 58 106 107 59
4 59 107 60 6
4 54 55 108 105
4 105 108 109 106
4 106 109 110 107
4 107 110 61 60
4 55 56 111 108
4 108 111 112 109
4 109 112 113 110
4 110 113 62 61
4 56 2 65 111
4 111 65 64 112
4 112 64 63 113
4 113 63 12 62
4 12 63 114 66
4 66 114 67 13
4 63 64 115 114
4 114 115 68 67
4 64 65 116 115
4 115 116 69 68
4 65 2 26 116
4 116 26 3 69
4 13 67 117 70
4 70 117 118 71
4 71 118 119 72
4 72 119 73 7
4 67 68 120 117
4 117 120 121 118
4 118 121 122 119
4 119 122 74 73
4 68 69 123 120
4 120 123 124 121
4 121 124 125 122
4 122 125 75 74
4 69 3 78 123
4 123 78 77 124
4 124 77 76 125
4 125 76 14 75
4 14 76 126 79
4 79 126 36 15
4 76 77 127 126
4 126 127 35 36
4 77 78 128 127
4 127 128 34 35
4 78 3 27 128
4 128 27 0 34
4 4 5 17 16
4 5 6 18 17
4 6 7 19 18
4 7 4 16 19
4 23 19 16 20
4 22 18 19 23
4 21 17 18 22
4 20 16 17 21
4 20 21 22 23

CELL_TYPES 109
9
9
9
9
9
9
9
9
9
9
9
9
9
9
9
9
9
9
9
9
9
9
9
9
9
9
9
9
9
9
9
9
9
9
9
9
9
9
9
9
9
9
9
9
9
9
9
9
9
9
9
9
9
9
9
9
9
9
9
9
9
9
9
9
9
9
9
9
9
9
9
9
9
9
9
9
9
9
9
9
9
9
9
9
9
9
9
9
9
9
9
9
9
9
9
9
9
9
9
9
9
9
9
9
9
9
9
9
9

CELL_DATA 109
SCALARS CellEntityIds int 1
LOOKUP_TABLE default
1
1
1
1
2
2
2
2
2
2
2
2
2
2
2
2
2
2
2
2
2
2
2
2
2
2
2
2
2
2
2
2
2
2
2
2
2
2
2
2
2
2
2
2
2
2
2
2
2
2
2
2
2
2
2
2
2
2
2
2
2
2
2
2
2
2
2
2
2
2
2
2
2
2
2
2
2
2
2
2
2
2
2
2
2
2
2
2
2
2
2
2
2
2
2
2
2
2
2
2
3
3
3
3
3
3
3
3
3
