# vtk DataFile Version 2.0
barra, Created by Gmsh 4.9.5 
ASCII
DATASET UNSTRUCTURED_GRID
POINTS 266 double
0 0 0
0 1 0
0 1 1
0 0 1
10 0 0
10 1 0
10 1 1
10 0 1
0 0.1666666666663209 0
0 0.333333333332501 0
0 0.499999999998692 0
0 0.6666666666657874 0
0 0.8333333333328937 0
0 1 0.1666666666663209
0 1 0.333333333332501
0 1 0.499999999998692
0 1 0.6666666666657874
0 1 0.8333333333328937
0 0.833333333333102 1
0 0.6666666666675918 1
0 0.5000000000020595 1
0 0.3333333333347207 1
0 0.1666666666673604 1
0 0 0.833333333333102
0 0 0.6666666666675918
0 0 0.5000000000020595
0 0 0.3333333333347207
0 0 0.1666666666673604
1.249999999998971 0 0
2.499999999995364 0 0
3.749999999991713 0 0
4.999999999992399 0 0
6.2499999999943 0 0
7.499999999996199 0 0
8.749999999998099 0 0
1.249999999998971 1 0
2.499999999995364 1 0
3.749999999991713 1 0
4.999999999992399 1 0
6.2499999999943 1 0
7.499999999996199 1 0
8.749999999998099 1 0
1.249999999998971 1 1
2.499999999995364 1 1
3.749999999991713 1 1
4.999999999992399 1 1
6.2499999999943 1 1
7.499999999996199 1 1
8.749999999998099 1 1
1.249999999998971 0 1
2.499999999995364 0 1
3.749999999991713 0 1
4.999999999992399 0 1
6.2499999999943 0 1
7.499999999996199 0 1
8.749999999998099 0 1
10 0.1666666666663209 0
10 0.333333333332501 0
10 0.499999999998692 0
10 0.6666666666657874 0
10 0.8333333333328937 0
10 1 0.1666666666663209
10 1 0.333333333332501
10 1 0.499999999998692
10 1 0.6666666666657874
10 1 0.8333333333328937
10 0.833333333333102 1
10 0.6666666666675918 1
10 0.5000000000020595 1
10 0.3333333333347207 1
10 0.1666666666673604 1
10 0 0.833333333333102
10 0 0.6666666666675918
10 0 0.5000000000020595
10 0 0.3333333333347207
10 0 0.1666666666673604
0 0.1666666666671872 0.833333333333067
0 0.3333333333343508 0.8333333333330326
0 0.5000000000014984 0.8333333333329979
0 0.6666666666672909 0.8333333333329631
0 0.8333333333330674 0.8333333333329284
0 0.1666666666670139 0.6666666666672908
0 0.3333333333339809 0.6666666666669905
0 0.500000000000937 0.6666666666666896
0 0.6666666666669903 0.666666666666389
0 0.8333333333330326 0.6666666666660883
0 0.1666666666668407 0.5000000000014981
0 0.3333333333336108 0.500000000000937
0 0.5000000000003757 0.5000000000003757
0 0.6666666666666896 0.4999999999998144
0 0.8333333333329977 0.4999999999992533
0 0.1666666666666674 0.3333333333343508
0 0.3333333333332409 0.3333333333339809
0 0.4999999999998144 0.3333333333336109
0 0.666666666666389 0.3333333333332409
0 0.8333333333329629 0.333333333332871
0 0.1666666666664942 0.1666666666671871
0 0.3333333333328709 0.1666666666670139
0 0.4999999999992533 0.1666666666668407
0 0.6666666666660883 0.1666666666666674
0 0.8333333333329282 0.1666666666664941
10 0.1666666666664941 0.1666666666671872
10 0.1666666666666674 0.3333333333343508
10 0.1666666666668407 0.5000000000014984
10 0.1666666666670139 0.666666666667291
10 0.1666666666671872 0.8333333333330672
10 0.333333333332871 0.1666666666670139
10 0.3333333333332409 0.3333333333339809
10 0.3333333333336109 0.500000000000937
10 0.3333333333339808 0.6666666666669903
10 0.3333333333343508 0.8333333333330326
10 0.4999999999992533 0.1666666666668407
10 0.4999999999998146 0.3333333333336109
10 0.5000000000003757 0.5000000000003757
10 0.500000000000937 0.6666666666666896
10 0.5000000000014984 0.8333333333329979
10 0.6666666666660882 0.1666666666666674
10 0.666666666666389 0.3333333333332409
10 0.6666666666666896 0.4999999999998144
10 0.6666666666669903 0.666666666666389
10 0.6666666666672909 0.8333333333329629
10 0.8333333333329285 0.1666666666664942
10 0.8333333333329631 0.3333333333328709
10 0.8333333333329979 0.4999999999992533
10 0.8333333333330326 0.6666666666660883
10 0.8333333333330674 0.8333333333329284
1.249999999998971 0.1666666666663209 0
2.499999999995364 0.1666666666663209 0
3.749999999991713 0.1666666666663209 0
4.9999999999924 0.1666666666663209 0
6.249999999994299 0.1666666666663209 0
7.499999999996199 0.1666666666663209 0
8.749999999998099 0.1666666666663209 0
1.249999999998971 0.3333333333325009 0
2.499999999995364 0.333333333332501 0
3.749999999991712 0.333333333332501 0
4.999999999992399 0.333333333332501 0
6.2499999999943 0.333333333332501 0
7.499999999996199 0.333333333332501 0
8.749999999998099 0.333333333332501 0
1.249999999998971 0.499999999998692 0
2.499999999995364 0.499999999998692 0
3.749999999991713 0.499999999998692 0
4.999999999992399 0.499999999998692 0
6.2499999999943 0.499999999998692 0
7.499999999996199 0.499999999998692 0
8.749999999998099 0.499999999998692 0
1.249999999998971 0.6666666666657872 0
2.499999999995364 0.6666666666657874 0
3.749999999991713 0.6666666666657874 0
4.999999999992399 0.6666666666657874 0
6.2499999999943 0.6666666666657874 0
7.499999999996199 0.6666666666657874 0
8.749999999998099 0.6666666666657874 0
1.249999999998971 0.8333333333328937 0
2.499999999995364 0.8333333333328935 0
3.749999999991713 0.8333333333328938 0
4.999999999992399 0.8333333333328938 0
6.2499999999943 0.8333333333328936 0
7.499999999996199 0.8333333333328937 0
8.749999999998099 0.8333333333328937 0
1.249999999998971 1 0.1666666666663209
2.499999999995364 1 0.1666666666663209
3.749999999991713 1 0.1666666666663209
4.9999999999924 1 0.1666666666663209
6.249999999994299 1 0.1666666666663209
7.499999999996199 1 0.1666666666663209
8.749999999998099 1 0.1666666666663209
1.249999999998971 1 0.3333333333325009
2.499999999995364 1 0.333333333332501
3.749999999991712 1 0.333333333332501
4.999999999992399 1 0.333333333332501
6.2499999999943 1 0.333333333332501
7.499999999996199 1 0.333333333332501
8.749999999998099 1 0.333333333332501
1.249999999998971 1 0.499999999998692
2.499999999995364 1 0.499999999998692
3.749999999991713 1 0.499999999998692
4.999999999992399 1 0.499999999998692
6.2499999999943 1 0.499999999998692
7.499999999996199 1 0.499999999998692
8.749999999998099 1 0.499999999998692
1.249999999998971 1 0.6666666666657872
2.499999999995364 1 0.6666666666657874
3.749999999991713 1 0.6666666666657874
4.999999999992399 1 0.6666666666657874
6.2499999999943 1 0.6666666666657874
7.499999999996199 1 0.6666666666657874
8.749999999998099 1 0.6666666666657874
1.249999999998971 1 0.8333333333328937
2.499999999995364 1 0.8333333333328935
3.749999999991713 1 0.8333333333328938
4.999999999992399 1 0.8333333333328938
6.2499999999943 1 0.8333333333328936
7.499999999996199 1 0.8333333333328937
8.749999999998099 1 0.8333333333328937
1.249999999998971 0.833333333333102 1
2.499999999995364 0.833333333333102 1
3.749999999991713 0.8333333333331021 1
4.9999999999924 0.8333333333331021 1
6.249999999994299 0.833333333333102 1
7.499999999996199 0.8333333333331022 1
8.749999999998099 0.8333333333331019 1
1.249999999998971 0.6666666666675918 1
2.499999999995364 0.6666666666675918 1
3.749999999991713 0.6666666666675918 1
4.999999999992399 0.6666666666675918 1
6.2499999999943 0.6666666666675918 1
7.499999999996199 0.6666666666675918 1
8.749999999998099 0.6666666666675918 1
1.249999999998971 0.5000000000020595 1
2.499999999995364 0.5000000000020595 1
3.749999999991713 0.5000000000020595 1
4.999999999992399 0.5000000000020595 1
6.2499999999943 0.5000000000020595 1
7.499999999996199 0.5000000000020595 1
8.749999999998099 0.5000000000020595 1
1.249999999998971 0.3333333333347207 1
2.499999999995364 0.3333333333347208 1
3.749999999991713 0.3333333333347207 1
4.999999999992399 0.3333333333347206 1
6.249999999994299 0.3333333333347207 1
7.499999999996199 0.3333333333347207 1
8.749999999998099 0.3333333333347207 1
1.249999999998971 0.1666666666673604 1
2.499999999995364 0.1666666666673604 1
3.749999999991713 0.1666666666673604 1
4.9999999999924 0.1666666666673604 1
6.249999999994299 0.1666666666673604 1
7.499999999996199 0.1666666666673604 1
8.749999999998099 0.1666666666673604 1
1.249999999998971 0 0.833333333333102
2.499999999995364 0 0.833333333333102
3.749999999991713 0 0.8333333333331021
4.9999999999924 0 0.8333333333331021
6.249999999994299 0 0.833333333333102
7.499999999996199 0 0.8333333333331022
8.749999999998099 0 0.8333333333331019
1.249999999998971 0 0.6666666666675918
2.499999999995364 0 0.6666666666675918
3.749999999991713 0 0.6666666666675918
4.999999999992399 0 0.6666666666675918
6.2499999999943 0 0.6666666666675918
7.499999999996199 0 0.6666666666675918
8.749999999998099 0 0.6666666666675918
1.249999999998971 0 0.5000000000020595
2.499999999995364 0 0.5000000000020595
3.749999999991713 0 0.5000000000020595
4.999999999992399 0 0.5000000000020595
6.2499999999943 0 0.5000000000020595
7.499999999996199 0 0.5000000000020595
8.749999999998099 0 0.5000000000020595
1.249999999998971 0 0.3333333333347207
2.499999999995364 0 0.3333333333347208
3.749999999991713 0 0.3333333333347207
4.999999999992399 0 0.3333333333347206
6.249999999994299 0 0.3333333333347207
7.499999999996199 0 0.3333333333347207
8.749999999998099 0 0.3333333333347207
1.249999999998971 0 0.1666666666673604
2.499999999995364 0 0.1666666666673604
3.749999999991713 0 0.1666666666673604
4.9999999999924 0 0.1666666666673604
6.249999999994299 0 0.1666666666673604
7.499999999996199 0 0.1666666666673604
8.749999999998099 0 0.1666666666673604

CELLS 264 1320
4 3 22 76 23
4 22 21 77 76
4 21 20 78 77
4 20 19 79 78
4 19 18 80 79
4 18 2 17 80
4 23 76 81 24
4 76 77 82 81
4 77 78 83 82
4 78 79 84 83
4 79 80 85 84
4 80 17 16 85
4 24 81 86 25
4 81 82 87 86
4 82 83 88 87
4 83 84 89 88
4 84 85 90 89
4 85 16 15 90
4 25 86 91 26
4 86 87 92 91
4 87 88 93 92
4 88 89 94 93
4 89 90 95 94
4 90 15 14 95
4 26 91 96 27
4 91 92 97 96
4 92 93 98 97
4 93 94 99 98
4 94 95 100 99
4 95 14 13 100
4 27 96 8 0
4 96 97 9 8
4 97 98 10 9
4 98 99 11 10
4 99 100 12 11
4 100 13 1 12
4 4 56 101 75
4 75 101 102 74
4 74 102 103 73
4 73 103 104 72
4 72 104 105 71
4 71 105 70 7
4 56 57 106 101
4 101 106 107 102
4 102 107 108 103
4 103 108 109 104
4 104 109 110 105
4 105 110 69 70
4 57 58 111 106
4 106 111 112 107
4 107 112 113 108
4 108 113 114 109
4 109 114 115 110
4 110 115 68 69
4 58 59 116 111
4 111 116 117 112
4 112 117 118 113
4 113 118 119 114
4 114 119 120 115
4 115 120 67 68
4 59 60 121 116
4 116 121 122 117
4 117 122 123 118
4 118 123 124 119
4 119 124 125 120
4 120 125 66 67
4 60 5 61 121
4 121 61 62 122
4 122 62 63 123
4 123 63 64 124
4 124 64 65 125
4 125 65 6 66
4 0 8 126 28
4 28 126 127 29
4 29 127 128 30
4 30 128 129 31
4 31 129 130 32
4 32 130 131 33
4 33 131 132 34
4 34 132 56 4
4 8 9 133 126
4 126 133 134 127
4 127 134 135 128
4 128 135 136 129
4 129 136 137 130
4 130 137 138 131
4 131 138 139 132
4 132 139 57 56
4 9 10 140 133
4 133 140 141 134
4 134 141 142 135
4 135 142 143 136
4 136 143 144 137
4 137 144 145 138
4 138 145 146 139
4 139 146 58 57
4 10 11 147 140
4 140 147 148 141
4 141 148 149 142
4 142 149 150 143
4 143 150 151 144
4 144 151 152 145
4 145 152 153 146
4 146 153 59 58
4 11 12 154 147
4 147 154 155 148
4 148 155 156 149
4 149 156 157 150
4 150 157 158 151
4 151 158 159 152
4 152 159 160 153
4 153 160 60 59
4 12 1 35 154
4 154 35 36 155
4 155 36 37 156
4 156 37 38 157
4 157 38 39 158
4 158 39 40 159
4 159 40 41 160
4 160 41 5 60
4 1 13 161 35
4 35 161 162 36
4 36 162 163 37
4 37 163 164 38
4 38 164 165 39
4 39 165 166 40
4 40 166 167 41
4 41 167 61 5
4 13 14 168 161
4 161 168 169 162
4 162 169 170 163
4 163 170 171 164
4 164 171 172 165
4 165 172 173 166
4 166 173 174 167
4 167 174 62 61
4 14 15 175 168
4 168 175 176 169
4 169 176 177 170
4 170 177 178 171
4 171 178 179 172
4 172 179 180 173
4 173 180 181 174
4 174 181 63 62
4 15 16 182 175
4 175 182 183 176
4 176 183 184 177
4 177 184 185 178
4 178 185 186 179
4 179 186 187 180
4 180 187 188 181
4 181 188 64 63
4 16 17 189 182
4 182 189 190 183
4 183 190 191 184
4 184 191 192 185
4 185 192 193 186
4 186 193 194 187
4 187 194 195 188
4 188 195 65 64
4 17 2 42 189
4 189 42 43 190
4 190 43 44 191
4 191 44 45 192
4 192 45 46 193
4 193 46 47 194
4 194 47 48 195
4 195 48 6 65
4 2 18 196 42
4 42 196 197 43
4 43 197 198 44
4 44 198 199 45
4 45 199 200 46
4 46 200 201 47
4 47 201 202 48
4 48 202 66 6
4 18 19 203 196
4 196 203 204 197
4 197 204 205 198
4 198 205 206 199
4 199 206 207 200
4 200 207 208 201
4 201 208 209 202
4 202 209 67 66
4 19 20 210 203
4 203 210 211 204
4 204 211 212 205
4 205 212 213 206
4 206 213 214 207
4 207 214 215 208
4 208 215 216 209
4 209 216 68 67
4 20 21 217 210
4 210 217 218 211
4 211 218 219 212
4 212 219 220 213
4 213 220 221 214
4 214 221 222 215
4 215 222 223 216
4 216 223 69 68
4 21 22 224 217
4 217 224 225 218
4 218 225 226 219
4 219 226 227 220
4 220 227 228 221
4 221 228 229 222
4 222 229 230 223
4 223 230 70 69
4 22 3 49 224
4 224 49 50 225
4 225 50 51 226
4 226 51 52 227
4 227 52 53 228
4 228 53 54 229
4 229 54 55 230
4 230 55 7 70
4 3 23 231 49
4 49 231 232 50
4 50 232 233 51
4 51 233 234 52
4 52 234 235 53
4 53 235 236 54
4 54 236 237 55
4 55 237 71 7
4 23 24 238 231
4 231 238 239 232
4 232 239 240 233
4 233 240 241 234
4 234 241 242 235
4 235 242 243 236
4 236 243 244 237
4 237 244 72 71
4 24 25 245 238
4 238 245 246 239
4 239 246 247 240
4 240 247 248 241
4 241 248 249 242
4 242 249 250 243
4 243 250 251 244
4 244 251 73 72
4 25 26 252 245
4 245 252 253 246
4 246 253 254 247
4 247 254 255 248
4 248 255 256 249
4 249 256 257 250
4 250 257 258 251
4 251 258 74 73
4 26 27 259 252
4 252 259 260 253
4 253 260 261 254
4 254 261 262 255
4 255 262 263 256
4 256 263 264 257
4 257 264 265 258
4 258 265 75 74
4 27 0 28 259
4 259 28 29 260
4 260 29 30 261
4 261 30 31 262
4 262 31 32 263
4 263 32 33 264
4 264 33 34 265
4 265 34 4 75

CELL_TYPES 264
9
9
9
9
9
9
9
9
9
9
9
9
9
9
9
9
9
9
9
9
9
9
9
9
9
9
9
9
9
9
9
9
9
9
9
9
9
9
9
9
9
9
9
9
9
9
9
9
9
9
9
9
9
9
9
9
9
9
9
9
9
9
9
9
9
9
9
9
9
9
9
9
9
9
9
9
9
9
9
9
9
9
9
9
9
9
9
9
9
9
9
9
9
9
9
9
9
9
9
9
9
9
9
9
9
9
9
9
9
9
9
9
9
9
9
9
9
9
9
9
9
9
9
9
9
9
9
9
9
9
9
9
9
9
9
9
9
9
9
9
9
9
9
9
9
9
9
9
9
9
9
9
9
9
9
9
9
9
9
9
9
9
9
9
9
9
9
9
9
9
9
9
9
9
9
9
9
9
9
9
9
9
9
9
9
9
9
9
9
9
9
9
9
9
9
9
9
9
9
9
9
9
9
9
9
9
9
9
9
9
9
9
9
9
9
9
9
9
9
9
9
9
9
9
9
9
9
9
9
9
9
9
9
9
9
9
9
9
9
9
9
9
9
9
9
9
9
9
9
9
9
9
9
9
9
9
9
9
9
9
9
9
9
9

CELL_DATA 264
SCALARS CellEntityIds int 1
LOOKUP_TABLE default
1
1
1
1
1
1
1
1
1
1
1
1
1
1
1
1
1
1
1
1
1
1
1
1
1
1
1
1
1
1
1
1
1
1
1
1
3
3
3
3
3
3
3
3
3
3
3
3
3
3
3
3
3
3
3
3
3
3
3
3
3
3
3
3
3
3
3
3
3
3
3
3
2
2
2
2
2
2
2
2
2
2
2
2
2
2
2
2
2
2
2
2
2
2
2
2
2
2
2
2
2
2
2
2
2
2
2
2
2
2
2
2
2
2
2
2
2
2
2
2
2
2
2
2
2
2
2
2
2
2
2
2
2
2
2
2
2
2
2
2
2
2
2
2
2
2
2
2
2
2
2
2
2
2
2
2
2
2
2
2
2
2
2
2
2
2
2
2
2
2
2
2
2
2
2
2
2
2
2
2
2
2
2
2
2
2
2
2
2
2
2
2
2
2
2
2
2
2
2
2
2
2
2
2
2
2
2
2
2
2
2
2
2
2
2
2
2
2
2
2
2
2
2
2
2
2
2
2
2
2
2
2
2
2
2
2
2
2
2
2
2
2
2
2
2
2
2
2
2
2
2
2
2
2
2
2
2
2
2
2
2
2
2
2
