# vtk DataFile Version 2.0
barra, Created by Gmsh 4.9.5 
ASCII
DATASET UNSTRUCTURED_GRID
POINTS 226 double
0 0 0
0 1 0
0 1 1
0 0 1
10 0 0
10 1 0
10 1 1
10 0 1
0 0.2499999999994109 0
0 0.4999999999986921 0
0 0.7499999999993406 0
0 1 0.2499999999994109
0 1 0.4999999999986921
0 1 0.7499999999993406
0 0.7500000000003471 1
0 0.5000000000020595 1
0 0.2500000000010405 1
0 0 0.7500000000003471
0 0 0.5000000000020595
0 0 0.2500000000010405
0.8333333333326386 0 0
1.666666666664465 0 0
2.499999999995364 0 0
3.333333333326263 0 0
4.166666666657799 0 0
4.999999999992399 0 0
5.833333333326999 0 0
6.6666666666616 0 0
7.499999999996199 0 0
8.333333333330801 0 0
9.166666666665401 0 0
0.8333333333326386 1 0
1.666666666664465 1 0
2.499999999995364 1 0
3.333333333326263 1 0
4.166666666657799 1 0
4.999999999992399 1 0
5.833333333326999 1 0
6.6666666666616 1 0
7.499999999996199 1 0
8.333333333330801 1 0
9.166666666665401 1 0
0.8333333333326386 1 1
1.666666666664465 1 1
2.499999999995364 1 1
3.333333333326263 1 1
4.166666666657799 1 1
4.999999999992399 1 1
5.833333333326999 1 1
6.6666666666616 1 1
7.499999999996199 1 1
8.333333333330801 1 1
9.166666666665401 1 1
0.8333333333326386 0 1
1.666666666664465 0 1
2.499999999995364 0 1
3.333333333326263 0 1
4.166666666657799 0 1
4.999999999992399 0 1
5.833333333326999 0 1
6.6666666666616 0 1
7.499999999996199 0 1
8.333333333330801 0 1
9.166666666665401 0 1
10 0.2499999999994109 0
10 0.4999999999986921 0
10 0.7499999999993406 0
10 1 0.2499999999994109
10 1 0.4999999999986921
10 1 0.7499999999993406
10 0.7500000000003471 1
10 0.5000000000020595 1
10 0.2500000000010405 1
10 0 0.7500000000003471
10 0 0.5000000000020595
10 0 0.2500000000010405
0 0.2500000000006332 0.7500000000000954
0 0.5000000000012177 0.7499999999998438
0 0.7500000000000953 0.7499999999995921
0 0.2500000000002257 0.5000000000012177
0 0.5000000000003757 0.5000000000003757
0 0.7499999999998439 0.4999999999995339
0 0.2499999999998184 0.2500000000006332
0 0.4999999999995339 0.2500000000002257
0 0.7499999999995922 0.2499999999998184
10 0.2499999999998184 0.2500000000006332
10 0.2500000000002257 0.5000000000012177
10 0.2500000000006332 0.7500000000000954
10 0.4999999999995339 0.2500000000002257
10 0.5000000000003757 0.5000000000003757
10 0.5000000000012177 0.749999999999844
10 0.7499999999995922 0.2499999999998184
10 0.749999999999844 0.4999999999995339
10 0.7500000000000953 0.7499999999995921
0.8333333333326387 0.2499999999994109 0
1.666666666664465 0.2499999999994109 0
2.499999999995364 0.2499999999994109 0
3.333333333326263 0.2499999999994109 0
4.166666666657799 0.249999999999411 0
4.999999999992399 0.249999999999411 0
5.833333333326999 0.2499999999994109 0
6.666666666661599 0.2499999999994109 0
7.499999999996199 0.2499999999994109 0
8.333333333330799 0.2499999999994109 0
9.166666666665401 0.2499999999994109 0
0.8333333333326385 0.4999999999986922 0
1.666666666664464 0.4999999999986922 0
2.499999999995364 0.4999999999986921 0
3.333333333326263 0.4999999999986922 0
4.166666666657799 0.499999999998692 0
4.9999999999924 0.499999999998692 0
5.833333333326999 0.4999999999986921 0
6.6666666666616 0.4999999999986922 0
7.499999999996199 0.4999999999986921 0
8.333333333330801 0.4999999999986921 0
9.166666666665403 0.4999999999986921 0
0.8333333333326388 0.7499999999993406 0
1.666666666664465 0.7499999999993407 0
2.499999999995364 0.7499999999993409 0
3.333333333326263 0.7499999999993406 0
4.166666666657799 0.7499999999993407 0
4.999999999992399 0.7499999999993407 0
5.833333333326999 0.7499999999993404 0
6.6666666666616 0.7499999999993406 0
7.499999999996199 0.7499999999993407 0
8.333333333330801 0.7499999999993406 0
9.166666666665401 0.7499999999993406 0
0.8333333333326387 1 0.2499999999994109
1.666666666664465 1 0.2499999999994109
2.499999999995364 1 0.2499999999994109
3.333333333326263 1 0.2499999999994109
4.166666666657799 1 0.249999999999411
4.999999999992399 1 0.249999999999411
5.833333333326999 1 0.2499999999994109
6.666666666661599 1 0.2499999999994109
7.499999999996199 1 0.2499999999994109
8.333333333330799 1 0.2499999999994109
9.166666666665401 1 0.2499999999994109
0.8333333333326385 1 0.4999999999986922
1.666666666664464 1 0.4999999999986922
2.499999999995364 1 0.4999999999986921
3.333333333326263 1 0.4999999999986922
4.166666666657799 1 0.499999999998692
4.9999999999924 1 0.499999999998692
5.833333333326999 1 0.4999999999986921
6.6666666666616 1 0.4999999999986922
7.499999999996199 1 0.4999999999986921
8.333333333330801 1 0.4999999999986921
9.166666666665403 1 0.4999999999986921
0.8333333333326388 1 0.7499999999993406
1.666666666664465 1 0.7499999999993407
2.499999999995364 1 0.7499999999993409
3.333333333326263 1 0.7499999999993406
4.166666666657799 1 0.7499999999993407
4.999999999992399 1 0.7499999999993407
5.833333333326999 1 0.7499999999993404
6.6666666666616 1 0.7499999999993406
7.499999999996199 1 0.7499999999993407
8.333333333330801 1 0.7499999999993406
9.166666666665401 1 0.7499999999993406
0.8333333333326387 0.7500000000003471 1
1.666666666664465 0.7500000000003473 1
2.499999999995364 0.7500000000003473 1
3.333333333326263 0.7500000000003472 1
4.166666666657799 0.7500000000003471 1
4.999999999992399 0.7500000000003471 1
5.833333333326999 0.7500000000003471 1
6.6666666666616 0.7500000000003471 1
7.499999999996199 0.7500000000003471 1
8.333333333330801 0.7500000000003471 1
9.1666666666654 0.7500000000003471 1
0.8333333333326387 0.5000000000020595 1
1.666666666664465 0.5000000000020595 1
2.499999999995364 0.5000000000020595 1
3.333333333326263 0.5000000000020595 1
4.166666666657799 0.5000000000020595 1
4.999999999992399 0.5000000000020595 1
5.833333333326999 0.5000000000020595 1
6.6666666666616 0.5000000000020595 1
7.499999999996199 0.5000000000020595 1
8.333333333330801 0.5000000000020595 1
9.166666666665401 0.5000000000020595 1
0.8333333333326386 0.2500000000010405 1
1.666666666664465 0.2500000000010405 1
2.499999999995364 0.2500000000010405 1
3.333333333326263 0.2500000000010405 1
4.166666666657799 0.2500000000010405 1
4.999999999992399 0.2500000000010405 1
5.833333333326999 0.2500000000010405 1
6.6666666666616 0.2500000000010405 1
7.4999999999962 0.2500000000010405 1
8.333333333330799 0.2500000000010405 1
9.1666666666654 0.2500000000010405 1
0.8333333333326387 0 0.7500000000003471
1.666666666664465 0 0.7500000000003473
2.499999999995364 0 0.7500000000003473
3.333333333326263 0 0.7500000000003472
4.166666666657799 0 0.7500000000003471
4.999999999992399 0 0.7500000000003471
5.833333333326999 0 0.7500000000003471
6.6666666666616 0 0.7500000000003471
7.499999999996199 0 0.7500000000003471
8.333333333330801 0 0.7500000000003471
9.1666666666654 0 0.7500000000003471
0.8333333333326387 0 0.5000000000020595
1.666666666664465 0 0.5000000000020595
2.499999999995364 0 0.5000000000020595
3.333333333326263 0 0.5000000000020595
4.166666666657799 0 0.5000000000020595
4.999999999992399 0 0.5000000000020595
5.833333333326999 0 0.5000000000020595
6.6666666666616 0 0.5000000000020595
7.499999999996199 0 0.5000000000020595
8.333333333330801 0 0.5000000000020595
9.166666666665401 0 0.5000000000020595
0.8333333333326386 0 0.2500000000010405
1.666666666664465 0 0.2500000000010405
2.499999999995364 0 0.2500000000010405
3.333333333326263 0 0.2500000000010405
4.166666666657799 0 0.2500000000010405
4.999999999992399 0 0.2500000000010405
5.833333333326999 0 0.2500000000010405
6.6666666666616 0 0.2500000000010405
7.4999999999962 0 0.2500000000010405
8.333333333330799 0 0.2500000000010405
9.1666666666654 0 0.2500000000010405

CELLS 224 1120
4 3 16 76 17
4 16 15 77 76
4 15 14 78 77
4 14 2 13 78
4 17 76 79 18
4 76 77 80 79
4 77 78 81 80
4 78 13 12 81
4 18 79 82 19
4 79 80 83 82
4 80 81 84 83
4 81 12 11 84
4 19 82 8 0
4 82 83 9 8
4 83 84 10 9
4 84 11 1 10
4 4 64 85 75
4 75 85 86 74
4 74 86 87 73
4 73 87 72 7
4 64 65 88 85
4 85 88 89 86
4 86 89 90 87
4 87 90 71 72
4 65 66 91 88
4 88 91 92 89
4 89 92 93 90
4 90 93 70 71
4 66 5 67 91
4 91 67 68 92
4 92 68 69 93
4 93 69 6 70
4 0 8 94 20
4 20 94 95 21
4 21 95 96 22
4 22 96 97 23
4 23 97 98 24
4 24 98 99 25
4 25 99 100 26
4 26 100 101 27
4 27 101 102 28
4 28 102 103 29
4 29 103 104 30
4 30 104 64 4
4 8 9 105 94
4 94 105 106 95
4 95 106 107 96
4 96 107 108 97
4 97 108 109 98
4 98 109 110 99
4 99 110 111 100
4 100 111 112 101
4 101 112 113 102
4 102 113 114 103
4 103 114 115 104
4 104 115 65 64
4 9 10 116 105
4 105 116 117 106
4 106 117 118 107
4 107 118 119 108
4 108 119 120 109
4 109 120 121 110
4 110 121 122 111
4 111 122 123 112
4 112 123 124 113
4 113 124 125 114
4 114 125 126 115
4 115 126 66 65
4 10 1 31 116
4 116 31 32 117
4 117 32 33 118
4 118 33 34 119
4 119 34 35 120
4 120 35 36 121
4 121 36 37 122
4 122 37 38 123
4 123 38 39 124
4 124 39 40 125
4 125 40 41 126
4 126 41 5 66
4 1 11 127 31
4 31 127 128 32
4 32 128 129 33
4 33 129 130 34
4 34 130 131 35
4 35 131 132 36
4 36 132 133 37
4 37 133 134 38
4 38 134 135 39
4 39 135 136 40
4 40 136 137 41
4 41 137 67 5
4 11 12 138 127
4 127 138 139 128
4 128 139 140 129
4 129 140 141 130
4 130 141 142 131
4 131 142 143 132
4 132 143 144 133
4 133 144 145 134
4 134 145 146 135
4 135 146 147 136
4 136 147 148 137
4 137 148 68 67
4 12 13 149 138
4 138 149 150 139
4 139 150 151 140
4 140 151 152 141
4 141 152 153 142
4 142 153 154 143
4 143 154 155 144
4 144 155 156 145
4 145 156 157 146
4 146 157 158 147
4 147 158 159 148
4 148 159 69 68
4 13 2 42 149
4 149 42 43 150
4 150 43 44 151
4 151 44 45 152
4 152 45 46 153
4 153 46 47 154
4 154 47 48 155
4 155 48 49 156
4 156 49 50 157
4 157 50 51 158
4 158 51 52 159
4 159 52 6 69
4 2 14 160 42
4 42 160 161 43
4 43 161 162 44
4 44 162 163 45
4 45 163 164 46
4 46 164 165 47
4 47 165 166 48
4 48 166 167 49
4 49 167 168 50
4 50 168 169 51
4 51 169 170 52
4 52 170 70 6
4 14 15 171 160
4 160 171 172 161
4 161 172 173 162
4 162 173 174 163
4 163 174 175 164
4 164 175 176 165
4 165 176 177 166
4 166 177 178 167
4 167 178 179 168
4 168 179 180 169
4 169 180 181 170
4 170 181 71 70
4 15 16 182 171
4 171 182 183 172
4 172 183 184 173
4 173 184 185 174
4 174 185 186 175
4 175 186 187 176
4 176 187 188 177
4 177 188 189 178
4 178 189 190 179
4 179 190 191 180
4 180 191 192 181
4 181 192 72 71
4 16 3 53 182
4 182 53 54 183
4 183 54 55 184
4 184 55 56 185
4 185 56 57 186
4 186 57 58 187
4 187 58 59 188
4 188 59 60 189
4 189 60 61 190
4 190 61 62 191
4 191 62 63 192
4 192 63 7 72
4 3 17 193 53
4 53 193 194 54
4 54 194 195 55
4 55 195 196 56
4 56 196 197 57
4 57 197 198 58
4 58 198 199 59
4 59 199 200 60
4 60 200 201 61
4 61 201 202 62
4 62 202 203 63
4 63 203 73 7
4 17 18 204 193
4 193 204 205 194
4 194 205 206 195
4 195 206 207 196
4 196 207 208 197
4 197 208 209 198
4 198 209 210 199
4 199 210 211 200
4 200 211 212 201
4 201 212 213 202
4 202 213 214 203
4 203 214 74 73
4 18 19 215 204
4 204 215 216 205
4 205 216 217 206
4 206 217 218 207
4 207 218 219 208
4 208 219 220 209
4 209 220 221 210
4 210 221 222 211
4 211 222 223 212
4 212 223 224 213
4 213 224 225 214
4 214 225 75 74
4 19 0 20 215
4 215 20 21 216
4 216 21 22 217
4 217 22 23 218
4 218 23 24 219
4 219 24 25 220
4 220 25 26 221
4 221 26 27 222
4 222 27 28 223
4 223 28 29 224
4 224 29 30 225
4 225 30 4 75

CELL_TYPES 224
9
9
9
9
9
9
9
9
9
9
9
9
9
9
9
9
9
9
9
9
9
9
9
9
9
9
9
9
9
9
9
9
9
9
9
9
9
9
9
9
9
9
9
9
9
9
9
9
9
9
9
9
9
9
9
9
9
9
9
9
9
9
9
9
9
9
9
9
9
9
9
9
9
9
9
9
9
9
9
9
9
9
9
9
9
9
9
9
9
9
9
9
9
9
9
9
9
9
9
9
9
9
9
9
9
9
9
9
9
9
9
9
9
9
9
9
9
9
9
9
9
9
9
9
9
9
9
9
9
9
9
9
9
9
9
9
9
9
9
9
9
9
9
9
9
9
9
9
9
9
9
9
9
9
9
9
9
9
9
9
9
9
9
9
9
9
9
9
9
9
9
9
9
9
9
9
9
9
9
9
9
9
9
9
9
9
9
9
9
9
9
9
9
9
9
9
9
9
9
9
9
9
9
9
9
9
9
9
9
9
9
9
9
9
9
9
9
9
9
9
9
9
9
9

CELL_DATA 224
SCALARS CellEntityIds int 1
LOOKUP_TABLE default
1
1
1
1
1
1
1
1
1
1
1
1
1
1
1
1
3
3
3
3
3
3
3
3
3
3
3
3
3
3
3
3
2
2
2
2
2
2
2
2
2
2
2
2
2
2
2
2
2
2
2
2
2
2
2
2
2
2
2
2
2
2
2
2
2
2
2
2
2
2
2
2
2
2
2
2
2
2
2
2
2
2
2
2
2
2
2
2
2
2
2
2
2
2
2
2
2
2
2
2
2
2
2
2
2
2
2
2
2
2
2
2
2
2
2
2
2
2
2
2
2
2
2
2
2
2
2
2
2
2
2
2
2
2
2
2
2
2
2
2
2
2
2
2
2
2
2
2
2
2
2
2
2
2
2
2
2
2
2
2
2
2
2
2
2
2
2
2
2
2
2
2
2
2
2
2
2
2
2
2
2
2
2
2
2
2
2
2
2
2
2
2
2
2
2
2
2
2
2
2
2
2
2
2
2
2
2
2
2
2
2
2
2
2
2
2
2
2
2
2
2
2
2
2
