# vtk DataFile Version 2.0
barra, Created by Gmsh 4.9.5 
ASCII
DATASET UNSTRUCTURED_GRID
POINTS 8 double
0 0 0
0 1 0
0 1 1
0 0 1
1 0 0
1 1 0
1 1 1
1 0 1

CELLS 6 30
4 3 2 1 0
4 4 5 6 7
4 0 1 5 4
4 1 2 6 5
4 2 3 7 6
4 3 0 4 7

CELL_TYPES 6
9
9
9
9
9
9

CELL_DATA 6
SCALARS CellEntityIds int 1
LOOKUP_TABLE default
1
3
2
2
2
2
