# vtk DataFile Version 2.0
barra, Created by Gmsh 4.9.5 
ASCII
DATASET UNSTRUCTURED_GRID
POINTS 26 double
0 0 0
0 1 0
0 1 1
0 0 1
10 0 0
10 1 0
10 1 1
10 0 1
0 0.4999999999986921 0
0 1 0.4999999999986921
0 0.5000000000020595 1
0 0 0.5000000000020595
4.999999999992399 0 0
4.999999999992399 1 0
4.999999999992399 1 1
4.999999999992399 0 1
10 0.4999999999986921 0
10 1 0.4999999999986921
10 0.5000000000020595 1
10 0 0.5000000000020595
0 0.5000000000003758 0.5000000000003758
10 0.5000000000003758 0.5000000000003758
4.9999999999924 0.499999999998692 0
4.9999999999924 1 0.499999999998692
4.999999999992399 0.5000000000020595 1
4.999999999992399 0 0.5000000000020595

CELLS 24 120
4 3 10 20 11
4 10 2 9 20
4 11 20 8 0
4 20 9 1 8
4 4 16 21 19
4 19 21 18 7
4 16 5 17 21
4 21 17 6 18
4 0 8 22 12
4 12 22 16 4
4 8 1 13 22
4 22 13 5 16
4 1 9 23 13
4 13 23 17 5
4 9 2 14 23
4 23 14 6 17
4 2 10 24 14
4 14 24 18 6
4 10 3 15 24
4 24 15 7 18
4 3 11 25 15
4 15 25 19 7
4 11 0 12 25
4 25 12 4 19

CELL_TYPES 24
9
9
9
9
9
9
9
9
9
9
9
9
9
9
9
9
9
9
9
9
9
9
9
9

CELL_DATA 24
SCALARS CellEntityIds int 1
LOOKUP_TABLE default
1
1
1
1
3
3
3
3
2
2
2
2
2
2
2
2
2
2
2
2
2
2
2
2
