# vtk DataFile Version 2.0
barra, Created by Gmsh 4.9.5 
ASCII
DATASET UNSTRUCTURED_GRID
POINTS 12 double
0 0 0
0 1 0
0 1 1
0 0 1
10 0 0
10 1 0
10 1 1
10 0 1
4.999999999992399 0 0
4.999999999992399 1 0
4.999999999992399 1 1
4.999999999992399 0 1

CELLS 10 50
4 3 2 1 0
4 4 5 6 7
4 0 1 9 8
4 8 9 5 4
4 1 2 10 9
4 9 10 6 5
4 2 3 11 10
4 10 11 7 6
4 3 0 8 11
4 11 8 4 7

CELL_TYPES 10
9
9
9
9
9
9
9
9
9
9

CELL_DATA 10
SCALARS CellEntityIds int 1
LOOKUP_TABLE default
1
3
2
2
2
2
2
2
2
2
