# vtk DataFile Version 2.0
barra, Created by Gmsh 4.9.5 
ASCII
DATASET UNSTRUCTURED_GRID
POINTS 170 double
0 0 0
0 1 0
0 1 1
0 0 1
10 0 0
10 1 0
10 1 1
10 0 1
0 0.4999999999986921 0
0 1 0.4999999999986921
0 0.5000000000020595 1
0 0 0.5000000000020595
0.499999999999551 0 0
0.9999999999991888 0 0
1.499999999998284 0 0
1.999999999996824 0 0
2.499999999995364 0 0
2.999999999993903 0 0
3.499999999992442 0 0
3.999999999991017 0 0
4.499999999991639 0 0
4.999999999992399 0 0
5.499999999993159 0 0
5.99999999999392 0 0
6.499999999994679 0 0
6.999999999995438 0 0
7.499999999996199 0 0
7.99999999999696 0 0
8.499999999997719 0 0
8.999999999998479 0 0
9.49999999999924 0 0
0.499999999999551 1 0
0.9999999999991888 1 0
1.499999999998284 1 0
1.999999999996824 1 0
2.499999999995364 1 0
2.999999999993903 1 0
3.499999999992442 1 0
3.999999999991017 1 0
4.499999999991639 1 0
4.999999999992399 1 0
5.499999999993159 1 0
5.99999999999392 1 0
6.499999999994679 1 0
6.999999999995438 1 0
7.499999999996199 1 0
7.99999999999696 1 0
8.499999999997719 1 0
8.999999999998479 1 0
9.49999999999924 1 0
0.499999999999551 1 1
0.9999999999991888 1 1
1.499999999998284 1 1
1.999999999996824 1 1
2.499999999995364 1 1
2.999999999993903 1 1
3.499999999992442 1 1
3.999999999991017 1 1
4.499999999991639 1 1
4.999999999992399 1 1
5.499999999993159 1 1
5.99999999999392 1 1
6.499999999994679 1 1
6.999999999995438 1 1
7.499999999996199 1 1
7.99999999999696 1 1
8.499999999997719 1 1
8.999999999998479 1 1
9.49999999999924 1 1
0.499999999999551 0 1
0.9999999999991888 0 1
1.499999999998284 0 1
1.999999999996824 0 1
2.499999999995364 0 1
2.999999999993903 0 1
3.499999999992442 0 1
3.999999999991017 0 1
4.499999999991639 0 1
4.999999999992399 0 1
5.499999999993159 0 1
5.99999999999392 0 1
6.499999999994679 0 1
6.999999999995438 0 1
7.499999999996199 0 1
7.99999999999696 0 1
8.499999999997719 0 1
8.999999999998479 0 1
9.49999999999924 0 1
10 0.4999999999986921 0
10 1 0.4999999999986921
10 0.5000000000020595 1
10 0 0.5000000000020595
0 0.5000000000003758 0.5000000000003758
10 0.5000000000003758 0.5000000000003758
0.4999999999995511 0.4999999999986922 0
0.9999999999991886 0.4999999999986921 0
1.499999999998285 0.4999999999986922 0
1.999999999996824 0.4999999999986922 0
2.499999999995364 0.4999999999986921 0
2.999999999993903 0.4999999999986922 0
3.499999999992442 0.4999999999986922 0
3.999999999991017 0.499999999998692 0
4.499999999991639 0.499999999998692 0
4.9999999999924 0.499999999998692 0
5.499999999993159 0.499999999998692 0
5.99999999999392 0.499999999998692 0
6.499999999994678 0.499999999998692 0
6.999999999995438 0.499999999998692 0
7.499999999996199 0.4999999999986921 0
7.999999999996959 0.4999999999986921 0
8.499999999997719 0.4999999999986921 0
8.999999999998479 0.4999999999986921 0
9.49999999999924 0.499999999998692 0
0.4999999999995511 1 0.4999999999986922
0.9999999999991886 1 0.4999999999986921
1.499999999998285 1 0.4999999999986922
1.999999999996824 1 0.4999999999986922
2.499999999995364 1 0.4999999999986921
2.999999999993903 1 0.4999999999986922
3.499999999992442 1 0.4999999999986922
3.999999999991017 1 0.499999999998692
4.499999999991639 1 0.499999999998692
4.9999999999924 1 0.499999999998692
5.499999999993159 1 0.499999999998692
5.99999999999392 1 0.499999999998692
6.499999999994678 1 0.499999999998692
6.999999999995438 1 0.499999999998692
7.499999999996199 1 0.4999999999986921
7.999999999996959 1 0.4999999999986921
8.499999999997719 1 0.4999999999986921
8.999999999998479 1 0.4999999999986921
9.49999999999924 1 0.499999999998692
0.499999999999551 0.5000000000020595 1
0.9999999999991886 0.5000000000020595 1
1.499999999998285 0.5000000000020595 1
1.999999999996824 0.5000000000020595 1
2.499999999995364 0.5000000000020595 1
2.999999999993903 0.5000000000020595 1
3.499999999992442 0.5000000000020595 1
3.999999999991017 0.5000000000020595 1
4.499999999991639 0.5000000000020595 1
4.999999999992399 0.5000000000020595 1
5.499999999993159 0.5000000000020595 1
5.99999999999392 0.5000000000020595 1
6.499999999994679 0.5000000000020595 1
6.999999999995438 0.5000000000020595 1
7.499999999996199 0.5000000000020595 1
7.999999999996959 0.5000000000020595 1
8.499999999997719 0.5000000000020595 1
8.999999999998479 0.5000000000020595 1
9.49999999999924 0.5000000000020595 1
0.499999999999551 0 0.5000000000020595
0.9999999999991886 0 0.5000000000020595
1.499999999998285 0 0.5000000000020595
1.999999999996824 0 0.5000000000020595
2.499999999995364 0 0.5000000000020595
2.999999999993903 0 0.5000000000020595
3.499999999992442 0 0.5000000000020595
3.999999999991017 0 0.5000000000020595
4.499999999991639 0 0.5000000000020595
4.999999999992399 0 0.5000000000020595
5.499999999993159 0 0.5000000000020595
5.99999999999392 0 0.5000000000020595
6.499999999994679 0 0.5000000000020595
6.999999999995438 0 0.5000000000020595
7.499999999996199 0 0.5000000000020595
7.999999999996959 0 0.5000000000020595
8.499999999997719 0 0.5000000000020595
8.999999999998479 0 0.5000000000020595
9.49999999999924 0 0.5000000000020595

CELLS 168 840
4 3 10 92 11
4 10 2 9 92
4 11 92 8 0
4 92 9 1 8
4 4 88 93 91
4 91 93 90 7
4 88 5 89 93
4 93 89 6 90
4 0 8 94 12
4 12 94 95 13
4 13 95 96 14
4 14 96 97 15
4 15 97 98 16
4 16 98 99 17
4 17 99 100 18
4 18 100 101 19
4 19 101 102 20
4 20 102 103 21
4 21 103 104 22
4 22 104 105 23
4 23 105 106 24
4 24 106 107 25
4 25 107 108 26
4 26 108 109 27
4 27 109 110 28
4 28 110 111 29
4 29 111 112 30
4 30 112 88 4
4 8 1 31 94
4 94 31 32 95
4 95 32 33 96
4 96 33 34 97
4 97 34 35 98
4 98 35 36 99
4 99 36 37 100
4 100 37 38 101
4 101 38 39 102
4 102 39 40 103
4 103 40 41 104
4 104 41 42 105
4 105 42 43 106
4 106 43 44 107
4 107 44 45 108
4 108 45 46 109
4 109 46 47 110
4 110 47 48 111
4 111 48 49 112
4 112 49 5 88
4 1 9 113 31
4 31 113 114 32
4 32 114 115 33
4 33 115 116 34
4 34 116 117 35
4 35 117 118 36
4 36 118 119 37
4 37 119 120 38
4 38 120 121 39
4 39 121 122 40
4 40 122 123 41
4 41 123 124 42
4 42 124 125 43
4 43 125 126 44
4 44 126 127 45
4 45 127 128 46
4 46 128 129 47
4 47 129 130 48
4 48 130 131 49
4 49 131 89 5
4 9 2 50 113
4 113 50 51 114
4 114 51 52 115
4 115 52 53 116
4 116 53 54 117
4 117 54 55 118
4 118 55 56 119
4 119 56 57 120
4 120 57 58 121
4 121 58 59 122
4 122 59 60 123
4 123 60 61 124
4 124 61 62 125
4 125 62 63 126
4 126 63 64 127
4 127 64 65 128
4 128 65 66 129
4 129 66 67 130
4 130 67 68 131
4 131 68 6 89
4 2 10 132 50
4 50 132 133 51
4 51 133 134 52
4 52 134 135 53
4 53 135 136 54
4 54 136 137 55
4 55 137 138 56
4 56 138 139 57
4 57 139 140 58
4 58 140 141 59
4 59 141 142 60
4 60 142 143 61
4 61 143 144 62
4 62 144 145 63
4 63 145 146 64
4 64 146 147 65
4 65 147 148 66
4 66 148 149 67
4 67 149 150 68
4 68 150 90 6
4 10 3 69 132
4 132 69 70 133
4 133 70 71 134
4 134 71 72 135
4 135 72 73 136
4 136 73 74 137
4 137 74 75 138
4 138 75 76 139
4 139 76 77 140
4 140 77 78 141
4 141 78 79 142
4 142 79 80 143
4 143 80 81 144
4 144 81 82 145
4 145 82 83 146
4 146 83 84 147
4 147 84 85 148
4 148 85 86 149
4 149 86 87 150
4 150 87 7 90
4 3 11 151 69
4 69 151 152 70
4 70 152 153 71
4 71 153 154 72
4 72 154 155 73
4 73 155 156 74
4 74 156 157 75
4 75 157 158 76
4 76 158 159 77
4 77 159 160 78
4 78 160 161 79
4 79 161 162 80
4 80 162 163 81
4 81 163 164 82
4 82 164 165 83
4 83 165 166 84
4 84 166 167 85
4 85 167 168 86
4 86 168 169 87
4 87 169 91 7
4 11 0 12 151
4 151 12 13 152
4 152 13 14 153
4 153 14 15 154
4 154 15 16 155
4 155 16 17 156
4 156 17 18 157
4 157 18 19 158
4 158 19 20 159
4 159 20 21 160
4 160 21 22 161
4 161 22 23 162
4 162 23 24 163
4 163 24 25 164
4 164 25 26 165
4 165 26 27 166
4 166 27 28 167
4 167 28 29 168
4 168 29 30 169
4 169 30 4 91

CELL_TYPES 168
9
9
9
9
9
9
9
9
9
9
9
9
9
9
9
9
9
9
9
9
9
9
9
9
9
9
9
9
9
9
9
9
9
9
9
9
9
9
9
9
9
9
9
9
9
9
9
9
9
9
9
9
9
9
9
9
9
9
9
9
9
9
9
9
9
9
9
9
9
9
9
9
9
9
9
9
9
9
9
9
9
9
9
9
9
9
9
9
9
9
9
9
9
9
9
9
9
9
9
9
9
9
9
9
9
9
9
9
9
9
9
9
9
9
9
9
9
9
9
9
9
9
9
9
9
9
9
9
9
9
9
9
9
9
9
9
9
9
9
9
9
9
9
9
9
9
9
9
9
9
9
9
9
9
9
9
9
9
9
9
9
9
9
9
9
9
9
9

CELL_DATA 168
SCALARS CellEntityIds int 1
LOOKUP_TABLE default
1
1
1
1
3
3
3
3
2
2
2
2
2
2
2
2
2
2
2
2
2
2
2
2
2
2
2
2
2
2
2
2
2
2
2
2
2
2
2
2
2
2
2
2
2
2
2
2
2
2
2
2
2
2
2
2
2
2
2
2
2
2
2
2
2
2
2
2
2
2
2
2
2
2
2
2
2
2
2
2
2
2
2
2
2
2
2
2
2
2
2
2
2
2
2
2
2
2
2
2
2
2
2
2
2
2
2
2
2
2
2
2
2
2
2
2
2
2
2
2
2
2
2
2
2
2
2
2
2
2
2
2
2
2
2
2
2
2
2
2
2
2
2
2
2
2
2
2
2
2
2
2
2
2
2
2
2
2
2
2
2
2
2
2
2
2
2
2
